REMARK  Name = 
REMARK  8 active torsions:
REMARK  status: ('A' for Active; 'I' for Inactive)
REMARK    1  A    between atoms: C_2  and  C_3
REMARK    2  A    between atoms: C_3  and  N_4
REMARK    3  A    between atoms: N_4  and  C_5
REMARK    4  A    between atoms: N_4  and  C_8
REMARK    5  A    between atoms: C_5  and  C_6
REMARK    6  A    between atoms: C_8  and  C_9
REMARK    7  A    between atoms: C_9  and  C_10
REMARK    8  A    between atoms: C_11  and  C_12
REMARK                            x       y       z     vdW  Elec       q    Type
REMARK                         _______ _______ _______ _____ _____    ______ ____
ROOT
ATOM      1  C   UNL     1       7.433   3.223   0.914  0.00  0.00    +0.000 A 
ATOM      2  C   UNL     1       6.966   4.522   0.715  0.00  0.00    +0.000 A 
ATOM      3  N   UNL     1       7.928   5.366   1.230  0.00  0.00    +0.000 N 
ATOM      4  C   UNL     1       9.015   4.678   1.695  0.00  0.00    +0.000 A 
ATOM      5  C   UNL     1      10.212   5.150   2.244  0.00  0.00    +0.000 A 
ATOM      6  C   UNL     1      11.169   4.206   2.621  0.00  0.00    +0.000 A 
ATOM      7  C   UNL     1      10.934   2.845   2.452  0.00  0.00    +0.000 A 
ATOM      8  C   UNL     1       9.732   2.395   1.893  0.00  0.00    +0.000 A 
ATOM      9  C   UNL     1       8.743   3.328   1.509  0.00  0.00    +0.000 A 
ATOM     10  H   UNL     1       7.873   6.373   1.198  0.00  0.00    +0.000 HD
ENDROOT
BRANCH   2  11
ATOM     11  C   UNL     1       5.799   5.087   0.023  0.00  0.00    +0.000 A 
ATOM     12  C   UNL     1       5.191   6.265   0.486  0.00  0.00    +0.000 A 
ATOM     13  C   UNL     1       4.202   6.907  -0.265  0.00  0.00    +0.000 A 
ATOM     14  C   UNL     1       3.792   6.367  -1.482  0.00  0.00    +0.000 A 
ATOM     15  C   UNL     1       4.353   5.174  -1.932  0.00  0.00    +0.000 A 
ATOM     16  C   UNL     1       5.352   4.542  -1.187  0.00  0.00    +0.000 A 
ENDBRANCH   2  11
BRANCH   1  17
ATOM     17  C   UNL     1       6.774   1.917   0.543  0.00  0.00    +0.000 C 
BRANCH  17  18
ATOM     18  C   UNL     1       6.497   1.027   1.774  0.00  0.00    +0.000 C 
BRANCH  18  19
ATOM     19  N   UNL     1       5.969  -0.344   1.509  0.00  0.00    +0.000 NA
BRANCH  19  20
ATOM     20  C   UNL     1       6.902  -1.080   0.634  0.00  0.00    +0.000 C 
BRANCH  20  22
ATOM     21  C   UNL     1       7.298  -3.562   0.609  0.00  0.00    +0.000 C 
ATOM     22  C   UNL     1       6.512  -2.505   0.344  0.00  0.00    +0.000 C 
ENDBRANCH  20  22
ENDBRANCH  19  20
BRANCH  19  23
ATOM     23  C   UNL     1       5.816  -1.050   2.803  0.00  0.00    +0.000 C 
BRANCH  23  24
ATOM     24  C   UNL     1       4.819  -0.389   3.716  0.00  0.00    +0.000 C 
ATOM     25  C   UNL     1       5.115   0.101   4.928  0.00  0.00    +0.000 C 
ENDBRANCH  23  24
ENDBRANCH  19  23
ENDBRANCH  18  19
ENDBRANCH  17  18
ENDBRANCH   1  17
TORSDOF 8
