REMARK  Name = 
REMARK  7 active torsions:
REMARK  status: ('A' for Active; 'I' for Inactive)
REMARK    1  A    between atoms: N_1  and  C_2
REMARK    2  A    between atoms: C_2  and  C_3
REMARK    3  A    between atoms: C_3  and  C_4
REMARK    4  A    between atoms: C_6  and  O_7
REMARK    5  A    between atoms: O_7  and  C_8
REMARK    6  A    between atoms: C_12  and  O_13
REMARK    7  A    between atoms: O_13  and  C_14
REMARK                            x       y       z     vdW  Elec       q    Type
REMARK                         _______ _______ _______ _____ _____    ______ ____
ROOT
ATOM      1  C   UNL     1       4.553  -0.385   1.193  0.00  0.00    +0.000 A 
ATOM      2  C   UNL     1       5.333  -1.003   2.207  0.00  0.00    +0.000 A 
ATOM      3  C   UNL     1       6.739  -1.022   2.224  0.00  0.00    +0.000 A 
ATOM      4  C   UNL     1       7.402  -0.384   1.180  0.00  0.00    +0.000 A 
ATOM      5 BR   UNL     1       9.282  -0.202   0.962  0.00  0.00    +0.000 Br
ATOM      6  C   UNL     1       6.645   0.217   0.158  0.00  0.00    +0.000 A 
ATOM      7  C   UNL     1       5.238   0.225   0.140  0.00  0.00    +0.000 A 
ENDROOT
BRANCH   3   8
ATOM      8  O   UNL     1       7.204  -1.690   3.317  0.00  0.00    +0.000 OA
ATOM      9  C   UNL     1       8.588  -1.930   3.499  0.00  0.00    +0.000 C 
ENDBRANCH   3   8
BRANCH   7  10
ATOM     10  O   UNL     1       4.794   0.837  -0.992  0.00  0.00    +0.000 OA
ATOM     11  C   UNL     1       3.465   1.285  -1.150  0.00  0.00    +0.000 C 
ENDBRANCH   7  10
BRANCH   1  12
ATOM     12  C   UNL     1       3.056  -0.509   1.369  0.00  0.00    +0.000 C 
BRANCH  12  13
ATOM     13  C   UNL     1       2.476  -1.759   0.702  0.00  0.00    +0.000 C 
BRANCH  13  14
ATOM     14  N   UNL     1       1.047  -1.883   0.992  0.00  0.00    +0.000 NA
ATOM     15  H   UNL     1       0.698  -2.762   0.608  0.00  0.00    +0.000 HD
ATOM     16  H   UNL     1       0.530  -1.141   0.522  0.00  0.00    +0.000 HD
ENDBRANCH  13  14
ENDBRANCH  12  13
ENDBRANCH   1  12
TORSDOF 5
