REMARK  Name = 
REMARK  9 active torsions:
REMARK  status: ('A' for Active; 'I' for Inactive)
REMARK    1  A    between atoms: N_1  and  C_2
REMARK    2  A    between atoms: C_2  and  C_3
REMARK    3  A    between atoms: C_3  and  C_4
REMARK    4  A    between atoms: C_6  and  O_7
REMARK    5  A    between atoms: O_7  and  C_8
REMARK    6  A    between atoms: C_9  and  C_10
REMARK    7  A    between atoms: C_10  and  C_11
REMARK    8  A    between atoms: C_13  and  O_14
REMARK    9  A    between atoms: O_14  and  C_15
REMARK                            x       y       z     vdW  Elec       q    Type
REMARK                         _______ _______ _______ _____ _____    ______ ____
ROOT
ATOM      1  C   UNL     1       4.464   1.384  -0.393  0.00  0.00    +0.000 A 
ATOM      2  C   UNL     1       5.101   1.519  -1.643  0.00  0.00    +0.000 A 
ATOM      3  C   UNL     1       6.496   1.594  -1.751  0.00  0.00    +0.000 A 
ATOM      4  C   UNL     1       7.283   1.471  -0.597  0.00  0.00    +0.000 A 
ATOM      5  C   UNL     1       6.648   1.332   0.648  0.00  0.00    +0.000 A 
ATOM      6  C   UNL     1       5.253   1.320   0.765  0.00  0.00    +0.000 A 
ENDROOT
BRANCH   3   7
ATOM      7  O   UNL     1       7.178   1.787  -2.925  0.00  0.00    +0.000 OA
ATOM      8  C   UNL     1       6.409   2.020  -4.096  0.00  0.00    +0.000 C 
ENDBRANCH   3   7
BRANCH   4   9
ATOM      9  C   UNL     1       8.794   1.502  -0.635  0.00  0.00    +0.000 C 
ATOM     10  C   UNL     1       9.361   2.880  -0.325  0.00  0.00    +0.000 C 
ENDBRANCH   4   9
BRANCH   6  11
ATOM     11  O   UNL     1       4.607   1.240   1.973  0.00  0.00    +0.000 OA
ATOM     12  C   UNL     1       5.352   1.706   3.096  0.00  0.00    +0.000 C 
ENDBRANCH   6  11
BRANCH   1  13
ATOM     13  C   UNL     1       2.947   1.342  -0.352  0.00  0.00    +0.000 C 
BRANCH  13  14
ATOM     14  C   UNL     1       2.379  -0.063  -0.592  0.00  0.00    +0.000 C 
BRANCH  14  15
ATOM     15  N   UNL     1       0.915  -0.034  -0.673  0.00  0.00    +0.000 NA
ATOM     16  H   UNL     1       0.559  -0.989  -0.697  0.00  0.00    +0.000 HD
ATOM     17  H   UNL     1       0.630   0.396  -1.552  0.00  0.00    +0.000 HD
ENDBRANCH  14  15
ENDBRANCH  13  14
ENDBRANCH   1  13
TORSDOF 6
