REMARK  Name = 
REMARK  7 active torsions:
REMARK  status: ('A' for Active; 'I' for Inactive)
REMARK    1  A    between atoms: N_1  and  C_2
REMARK    2  A    between atoms: C_2  and  C_3
REMARK    3  A    between atoms: C_3  and  C_4
REMARK    4  A    between atoms: C_6  and  O_7
REMARK    5  A    between atoms: O_7  and  C_8
REMARK    6  A    between atoms: C_11  and  O_12
REMARK    7  A    between atoms: O_12  and  C_13
REMARK                            x       y       z     vdW  Elec       q    Type
REMARK                         _______ _______ _______ _____ _____    ______ ____
ROOT
ATOM      1  C   UNL     1       4.432   0.571   1.250  0.00  0.00    +0.000 A 
ATOM      2  C   UNL     1       5.201   0.089   0.162  0.00  0.00    +0.000 A 
ATOM      3  C   UNL     1       6.594   0.198   0.127  0.00  0.00    +0.000 A 
ATOM      4  C   UNL     1       7.255   0.773   1.205  0.00  0.00    +0.000 A 
ATOM      5  C   UNL     1       6.526   1.245   2.294  0.00  0.00    +0.000 A 
ATOM      6  C   UNL     1       5.126   1.144   2.335  0.00  0.00    +0.000 A 
ENDROOT
BRANCH   3   7
ATOM      7  O   UNL     1       7.402  -0.203  -0.902  0.00  0.00    +0.000 OA
ATOM      8  C   UNL     1       6.761  -0.717  -2.063  0.00  0.00    +0.000 C 
ENDBRANCH   3   7
BRANCH   6   9
ATOM      9  O   UNL     1       4.591   1.753   3.439  0.00  0.00    +0.000 OA
ATOM     10  C   UNL     1       3.478   1.139   4.072  0.00  0.00    +0.000 C 
ENDBRANCH   6   9
BRANCH   1  11
ATOM     11  C   UNL     1       2.916   0.500   1.197  0.00  0.00    +0.000 C 
BRANCH  11  12
ATOM     12  C   UNL     1       2.268  -0.032  -0.094  0.00  0.00    +0.000 C 
BRANCH  12  13
ATOM     13  N   UNL     1       0.808  -0.025   0.001  0.00  0.00    +0.000 NA
ATOM     14  H   UNL     1       0.413  -0.380  -0.869  0.00  0.00    +0.000 HD
ATOM     15  H   UNL     1       0.476   0.935   0.089  0.00  0.00    +0.000 HD
ENDBRANCH  12  13
ENDBRANCH  11  12
ENDBRANCH   1  11
TORSDOF 5
