REMARK  Name = 
REMARK  10 active torsions:
REMARK  status: ('A' for Active; 'I' for Inactive)
REMARK    1  A    between atoms: N_1  and  C_2
REMARK    2  A    between atoms: C_2  and  C_3
REMARK    3  A    between atoms: C_3  and  C_4
REMARK    4  A    between atoms: C_6  and  O_7
REMARK    5  A    between atoms: O_7  and  C_8
REMARK    6  A    between atoms: C_9  and  S_10
REMARK    7  A    between atoms: S_10  and  C_11
REMARK    8  A    between atoms: C_11  and  C_12
REMARK    9  A    between atoms: C_14  and  O_15
REMARK   10  A    between atoms: O_15  and  C_16
REMARK                            x       y       z     vdW  Elec       q    Type
REMARK                         _______ _______ _______ _____ _____    ______ ____
ROOT
ATOM      1  C   UNL     1       4.307   1.182  -0.803  0.00  0.00    +0.000 A 
ATOM      2  C   UNL     1       5.026   2.305  -1.293  0.00  0.00    +0.000 A 
ATOM      3  C   UNL     1       6.425   2.378  -1.280  0.00  0.00    +0.000 A 
ATOM      4  C   UNL     1       7.150   1.305  -0.758  0.00  0.00    +0.000 A 
ATOM      5  C   UNL     1       6.452   0.186  -0.281  0.00  0.00    +0.000 A 
ATOM      6  C   UNL     1       5.046   0.102  -0.296  0.00  0.00    +0.000 A 
ENDROOT
BRANCH   3   7
ATOM      7  O   UNL     1       7.130   3.478  -1.705  0.00  0.00    +0.000 OA
ATOM      8  C   UNL     1       6.519   4.304  -2.687  0.00  0.00    +0.000 C 
ENDBRANCH   3   7
BRANCH   6   9
ATOM      9  O   UNL     1       4.618  -1.039   0.312  0.00  0.00    +0.000 OA
ATOM     10  C   UNL     1       3.431  -1.710  -0.070  0.00  0.00    +0.000 C 
ENDBRANCH   6   9
BRANCH   1  11
ATOM     11  C   UNL     1       2.796   1.291  -0.870  0.00  0.00    +0.000 C 
BRANCH  11  12
ATOM     12  C   UNL     1       2.086   1.300   0.486  0.00  0.00    +0.000 C 
BRANCH  12  13
ATOM     13  N   UNL     1       0.641   1.446   0.301  0.00  0.00    +0.000 NA
ATOM     14  H   UNL     1       0.181   1.430   1.212  0.00  0.00    +0.000 HD
ATOM     15  H   UNL     1       0.272   0.646  -0.213  0.00  0.00    +0.000 HD
ENDBRANCH  12  13
ENDBRANCH  11  12
ENDBRANCH   1  11
BRANCH   4  16
ATOM     16  S   UNL     1       8.944   1.230  -0.732  0.00  0.00    +0.000 S 
BRANCH  16  17
ATOM     17  C   UNL     1       9.314   2.569   0.450  0.00  0.00    +0.000 C 
ATOM     18  C   UNL     1      10.809   2.609   0.728  0.00  0.00    +0.000 C 
ENDBRANCH  16  17
ENDBRANCH   4  16
TORSDOF 7
