REMARK  Name = 
REMARK  10 active torsions:
REMARK  status: ('A' for Active; 'I' for Inactive)
REMARK    1  A    between atoms: C_2  and  C_3
REMARK    2  A    between atoms: C_3  and  N_4
REMARK    3  A    between atoms: N_4  and  C_5
REMARK    4  A    between atoms: N_4  and  C_8
REMARK    5  A    between atoms: C_5  and  C_6
REMARK    6  A    between atoms: C_8  and  C_9
REMARK    7  A    between atoms: C_9  and  C_10
REMARK    8  A    between atoms: C_16  and  O_17
REMARK    9  A    between atoms: O_17  and  C_18
REMARK   10  A    between atoms: C_18  and  C_19
REMARK                            x       y       z     vdW  Elec       q    Type
REMARK                         _______ _______ _______ _____ _____    ______ ____
ROOT
ATOM      1  C   UNL     1       7.592  -3.363  -0.553  0.00  0.00    +0.000 A 
ATOM      2  N   UNL     1       7.039  -4.529  -0.073  0.00  0.00    +0.000 N 
ATOM      3  C   UNL     1       7.880  -5.592  -0.292  0.00  0.00    +0.000 A 
ATOM      4  C   UNL     1       7.743  -6.942   0.044  0.00  0.00    +0.000 A 
ATOM      5  C   UNL     1       8.796  -7.798  -0.301  0.00  0.00    +0.000 A 
ATOM      6  C   UNL     1       9.933  -7.327  -0.965  0.00  0.00    +0.000 A 
ATOM      7  C   UNL     1      10.041  -5.974  -1.305  0.00  0.00    +0.000 A 
ATOM      8  C   UNL     1       8.998  -5.093  -0.955  0.00  0.00    +0.000 A 
ATOM      9  C   UNL     1       8.800  -3.694  -1.125  0.00  0.00    +0.000 A 
ATOM     10  H   UNL     1       6.136  -4.573   0.388  0.00  0.00    +0.000 HD
ENDROOT
BRANCH   1  11
ATOM     11  C   UNL     1       6.923  -2.035  -0.397  0.00  0.00    +0.000 C 
BRANCH  11  12
ATOM     12  C   UNL     1       5.382  -2.107  -0.345  0.00  0.00    +0.000 C 
BRANCH  12  13
ATOM     13  N   UNL     1       4.804  -2.950   0.746  0.00  0.00    +0.000 NA
BRANCH  13  14
ATOM     14  C   UNL     1       5.188  -2.382   2.056  0.00  0.00    +0.000 C 
BRANCH  14  16
ATOM     15  C   UNL     1       3.956  -2.648   4.222  0.00  0.00    +0.000 C 
ATOM     16  C   UNL     1       4.702  -3.170   3.238  0.00  0.00    +0.000 C 
ENDBRANCH  14  16
ENDBRANCH  13  14
BRANCH  13  17
ATOM     17  C   UNL     1       3.332  -2.998   0.613  0.00  0.00    +0.000 C 
BRANCH  17  18
ATOM     18  C   UNL     1       2.886  -3.656  -0.666  0.00  0.00    +0.000 C 
ATOM     19  C   UNL     1       2.107  -3.068  -1.584  0.00  0.00    +0.000 C 
ENDBRANCH  17  18
ENDBRANCH  13  17
ENDBRANCH  12  13
ENDBRANCH  11  12
ENDBRANCH   1  11
BRANCH   7  20
ATOM     20  O   UNL     1      11.143  -5.409  -1.986  0.00  0.00    +0.000 OA
BRANCH  20  21
ATOM     21  C   UNL     1      12.314  -6.019  -2.424  0.00  0.00    +0.000 C 
ATOM     22  C   UNL     1      13.155  -4.984  -3.119  0.00  0.00    +0.000 C 
ATOM     23  O   UNL     1      12.624  -7.194  -2.297  0.00  0.00    +0.000 OA
ENDBRANCH  20  21
ENDBRANCH   7  20
TORSDOF 9
