REMARK  Name = 
REMARK  8 active torsions:
REMARK  status: ('A' for Active; 'I' for Inactive)
REMARK    1  A    between atoms: C_2  and  C_3
REMARK    2  A    between atoms: C_3  and  N_4
REMARK    3  A    between atoms: N_4  and  C_5
REMARK    4  A    between atoms: N_4  and  C_8
REMARK    5  A    between atoms: C_5  and  C_6
REMARK    6  A    between atoms: C_8  and  C_9
REMARK    7  A    between atoms: C_9  and  C_10
REMARK    8  A    between atoms: C_16  and  O_17
REMARK                            x       y       z     vdW  Elec       q    Type
REMARK                         _______ _______ _______ _____ _____    ______ ____
ROOT
ATOM      1  C   UNL     1       7.575  -0.267   1.917  0.00  0.00    +0.000 A 
ATOM      2  N   UNL     1       6.969   0.946   1.685  0.00  0.00    +0.000 N 
ATOM      3  C   UNL     1       7.690   1.962   2.273  0.00  0.00    +0.000 A 
ATOM      4  C   UNL     1       7.419   3.332   2.371  0.00  0.00    +0.000 A 
ATOM      5  C   UNL     1       8.330   4.123   3.083  0.00  0.00    +0.000 A 
ATOM      6  C   UNL     1       9.475   3.570   3.657  0.00  0.00    +0.000 A 
ATOM      7  C   UNL     1       9.737   2.203   3.528  0.00  0.00    +0.000 A 
ATOM      8  C   UNL     1       8.829   1.383   2.832  0.00  0.00    +0.000 A 
ATOM      9  C   UNL     1       8.766  -0.011   2.562  0.00  0.00    +0.000 A 
ATOM     10  H   UNL     1       6.073   1.052   1.221  0.00  0.00    +0.000 HD
ENDROOT
BRANCH   7  11
ATOM     11  O   UNL     1      10.854   1.649   4.098  0.00  0.00    +0.000 OA
ATOM     12  H   UNL     1      11.334   2.346   4.571  0.00  0.00    +0.000 HD
ENDBRANCH   7  11
BRANCH   1  13
ATOM     13  C   UNL     1       6.961  -1.571   1.522  0.00  0.00    +0.000 C 
BRANCH  13  14
ATOM     14  C   UNL     1       5.420  -1.602   1.626  0.00  0.00    +0.000 C 
BRANCH  14  15
ATOM     15  N   UNL     1       4.673  -0.700   0.698  0.00  0.00    +0.000 NA
BRANCH  15  16
ATOM     16  C   UNL     1       4.980  -1.079  -0.699  0.00  0.00    +0.000 C 
BRANCH  16  18
ATOM     17  C   UNL     1       3.549  -0.684  -2.720  0.00  0.00    +0.000 C 
ATOM     18  C   UNL     1       4.321  -0.212  -1.733  0.00  0.00    +0.000 C 
ENDBRANCH  16  18
ENDBRANCH  15  16
BRANCH  15  19
ATOM     19  C   UNL     1       3.217  -0.834   0.946  0.00  0.00    +0.000 C 
BRANCH  19  20
ATOM     20  C   UNL     1       2.810  -0.398   2.328  0.00  0.00    +0.000 C 
ATOM     21  C   UNL     1       2.131  -1.164   3.193  0.00  0.00    +0.000 C 
ENDBRANCH  19  20
ENDBRANCH  15  19
ENDBRANCH  14  15
ENDBRANCH  13  14
ENDBRANCH   1  13
TORSDOF 8
