REMARK  Name = 
REMARK  7 active torsions:
REMARK  status: ('A' for Active; 'I' for Inactive)
REMARK    1  A    between atoms: C_2  and  C_3
REMARK    2  A    between atoms: C_3  and  N_4
REMARK    3  A    between atoms: N_4  and  C_5
REMARK    4  A    between atoms: N_4  and  C_8
REMARK    5  A    between atoms: C_5  and  C_6
REMARK    6  A    between atoms: C_8  and  C_9
REMARK    7  A    between atoms: C_9  and  C_10
REMARK                            x       y       z     vdW  Elec       q    Type
REMARK                         _______ _______ _______ _____ _____    ______ ____
ROOT
ATOM      1  C   UNL     1       7.588  -0.758  -3.411  0.00  0.00    +0.000 A 
ATOM      2  C   UNL     1       8.008  -2.001  -3.847  0.00  0.00    +0.000 A 
ATOM      3  N   UNL     1       8.582  -1.853  -5.080  0.00  0.00    +0.000 N 
ATOM      4  C   UNL     1       8.546  -0.533  -5.465  0.00  0.00    +0.000 A 
ATOM      5  C   UNL     1       9.013   0.078  -6.636  0.00  0.00    +0.000 A 
ATOM      6  C   UNL     1       8.831   1.459  -6.753  0.00  0.00    +0.000 A 
ATOM      7 BR   UNL     1       9.451   2.340  -8.310  0.00  0.00    +0.000 Br
ATOM      8  C   UNL     1       8.206   2.199  -5.753  0.00  0.00    +0.000 A 
ATOM      9  C   UNL     1       7.746   1.568  -4.591  0.00  0.00    +0.000 A 
ATOM     10  C   UNL     1       7.921   0.178  -4.439  0.00  0.00    +0.000 A 
ATOM     11  H   UNL     1       8.975  -2.602  -5.634  0.00  0.00    +0.000 HD
ENDROOT
BRANCH   1  12
ATOM     12  C   UNL     1       6.899  -0.462  -2.111  0.00  0.00    +0.000 C 
BRANCH  12  13
ATOM     13  C   UNL     1       5.368  -0.572  -2.243  0.00  0.00    +0.000 C 
BRANCH  13  14
ATOM     14  N   UNL     1       4.583  -0.340  -1.006  0.00  0.00    +0.000 NA
BRANCH  14  15
ATOM     15  C   UNL     1       3.149  -0.419  -1.335  0.00  0.00    +0.000 C 
BRANCH  15  17
ATOM     16  C   UNL     1       1.320  -0.969   0.298  0.00  0.00    +0.000 C 
ATOM     17  C   UNL     1       2.235  -0.115  -0.181  0.00  0.00    +0.000 C 
ENDBRANCH  15  17
ENDBRANCH  14  15
BRANCH  14  18
ATOM     18  C   UNL     1       4.980  -1.223   0.103  0.00  0.00    +0.000 C 
BRANCH  18  19
ATOM     19  C   UNL     1       4.845  -2.698  -0.159  0.00  0.00    +0.000 C 
ATOM     20  C   UNL     1       5.865  -3.567  -0.178  0.00  0.00    +0.000 C 
ENDBRANCH  18  19
ENDBRANCH  14  18
ENDBRANCH  13  14
ENDBRANCH  12  13
ENDBRANCH   1  12
TORSDOF 7
