REMARK  Name = 
REMARK  7 active torsions:
REMARK  status: ('A' for Active; 'I' for Inactive)
REMARK    1  A    between atoms: C_2  and  C_3
REMARK    2  A    between atoms: C_3  and  N_4
REMARK    3  A    between atoms: N_4  and  C_5
REMARK    4  A    between atoms: N_4  and  C_8
REMARK    5  A    between atoms: C_5  and  C_6
REMARK    6  A    between atoms: C_8  and  C_9
REMARK    7  A    between atoms: C_9  and  C_10
REMARK                            x       y       z     vdW  Elec       q    Type
REMARK                         _______ _______ _______ _____ _____    ______ ____
ROOT
ATOM      1  C   UNL     1       7.500  -0.583  -3.363  0.00  0.00    +0.000 A 
ATOM      2  C   UNL     1       7.903  -1.814  -3.849  0.00  0.00    +0.000 A 
ATOM      3  N   UNL     1       8.530  -1.621  -5.050  0.00  0.00    +0.000 N 
ATOM      4  C   UNL     1       8.547  -0.282  -5.365  0.00  0.00    +0.000 A 
ATOM      5  C   UNL     1       9.083   0.377  -6.477  0.00  0.00    +0.000 A 
ATOM      6  C   UNL     1       8.947   1.763  -6.521  0.00  0.00    +0.000 A 
ATOM      7  F   UNL     1       9.452   2.431  -7.568  0.00  0.00    +0.000 F 
ATOM      8  C   UNL     1       8.308   2.472  -5.513  0.00  0.00    +0.000 A 
ATOM      9  C   UNL     1       7.778   1.798  -4.408  0.00  0.00    +0.000 A 
ATOM     10  C   UNL     1       7.901   0.394  -4.327  0.00  0.00    +0.000 A 
ATOM     11  H   UNL     1       8.930  -2.351  -5.622  0.00  0.00    +0.000 HD
ENDROOT
BRANCH   1  12
ATOM     12  C   UNL     1       6.787  -0.334  -2.067  0.00  0.00    +0.000 C 
BRANCH  12  13
ATOM     13  C   UNL     1       5.257  -0.423  -2.222  0.00  0.00    +0.000 C 
BRANCH  13  14
ATOM     14  N   UNL     1       4.465  -0.233  -0.981  0.00  0.00    +0.000 NA
BRANCH  14  15
ATOM     15  C   UNL     1       3.032  -0.294  -1.320  0.00  0.00    +0.000 C 
BRANCH  15  17
ATOM     16  C   UNL     1       1.199  -0.917   0.282  0.00  0.00    +0.000 C 
ATOM     17  C   UNL     1       2.108  -0.038  -0.161  0.00  0.00    +0.000 C 
ENDBRANCH  15  17
ENDBRANCH  14  15
BRANCH  14  18
ATOM     18  C   UNL     1       4.853  -1.160   0.095  0.00  0.00    +0.000 C 
BRANCH  18  19
ATOM     19  C   UNL     1       4.718  -2.622  -0.230  0.00  0.00    +0.000 C 
ATOM     20  C   UNL     1       5.737  -3.491  -0.283  0.00  0.00    +0.000 C 
ENDBRANCH  18  19
ENDBRANCH  14  18
ENDBRANCH  13  14
ENDBRANCH  12  13
ENDBRANCH   1  12
TORSDOF 7
