REMARK  Name = 
REMARK  9 active torsions:
REMARK  status: ('A' for Active; 'I' for Inactive)
REMARK    1  A    between atoms: C_2  and  C_3
REMARK    2  A    between atoms: C_3  and  N_4
REMARK    3  A    between atoms: N_4  and  C_5
REMARK    4  A    between atoms: N_4  and  C_8
REMARK    5  A    between atoms: C_5  and  C_6
REMARK    6  A    between atoms: C_8  and  C_9
REMARK    7  A    between atoms: C_9  and  C_10
REMARK    8  A    between atoms: C_14  and  O_15
REMARK    9  A    between atoms: O_15  and  C_16
REMARK                            x       y       z     vdW  Elec       q    Type
REMARK                         _______ _______ _______ _____ _____    ______ ____
ROOT
ATOM      1  C   UNL     1       7.615   3.344  -0.607  0.00  0.00    +0.000 A 
ATOM      2  N   UNL     1       7.228   4.340  -1.476  0.00  0.00    +0.000 N 
ATOM      3  C   UNL     1       8.171   5.349  -1.505  0.00  0.00    +0.000 A 
ATOM      4  C   UNL     1       8.221   6.545  -2.240  0.00  0.00    +0.000 A 
ATOM      5  C   UNL     1       9.331   7.387  -2.062  0.00  0.00    +0.000 A 
ATOM      6  C   UNL     1      10.352   7.031  -1.180  0.00  0.00    +0.000 A 
ATOM      7  C   UNL     1      10.290   5.839  -0.452  0.00  0.00    +0.000 A 
ATOM      8  C   UNL     1       9.185   4.985  -0.617  0.00  0.00    +0.000 A 
ATOM      9  C   UNL     1       8.812   3.746  -0.075  0.00  0.00    +0.000 A 
ATOM     10  F   UNL     1       9.509   3.058   0.790  0.00  0.00    +0.000 F 
ATOM     11  H   UNL     1       6.366   4.318  -2.016  0.00  0.00    +0.000 HD
ENDROOT
BRANCH   5  12
ATOM     12  O   UNL     1       9.301   8.533  -2.815  0.00  0.00    +0.000 OA
ATOM     13  C   UNL     1      10.401   9.425  -2.666  0.00  0.00    +0.000 C 
ENDBRANCH   5  12
BRANCH   1  14
ATOM     14  C   UNL     1       6.856   2.081  -0.378  0.00  0.00    +0.000 C 
BRANCH  14  15
ATOM     15  C   UNL     1       5.327   2.205  -0.511  0.00  0.00    +0.000 C 
BRANCH  15  16
ATOM     16  N   UNL     1       4.823   2.630  -1.850  0.00  0.00    +0.000 NA
BRANCH  16  17
ATOM     17  C   UNL     1       5.236   1.620  -2.850  0.00  0.00    +0.000 C 
BRANCH  17  19
ATOM     18  C   UNL     1       4.110   1.099  -5.025  0.00  0.00    +0.000 C 
ATOM     19  C   UNL     1       4.836   1.927  -4.262  0.00  0.00    +0.000 C 
ENDBRANCH  17  19
ENDBRANCH  16  17
BRANCH  16  20
ATOM     20  C   UNL     1       3.346   2.732  -1.804  0.00  0.00    +0.000 C 
BRANCH  20  21
ATOM     21  C   UNL     1       2.856   3.787  -0.846  0.00  0.00    +0.000 C 
ATOM     22  C   UNL     1       2.005   3.542   0.162  0.00  0.00    +0.000 C 
ENDBRANCH  20  21
ENDBRANCH  16  20
ENDBRANCH  15  16
ENDBRANCH  14  15
ENDBRANCH   1  14
TORSDOF 8
