REMARK  Name = 
REMARK  12 active torsions:
REMARK  status: ('A' for Active; 'I' for Inactive)
REMARK    1  A    between atoms: C_1  and  C_2
REMARK    2  A    between atoms: C_2  and  C_3
REMARK    3  A    between atoms: C_2  and  N_4
REMARK    4  A    between atoms: N_4  and  C_5
REMARK    5  A    between atoms: N_4  and  C_9
REMARK    6  A    between atoms: C_5  and  C_6
REMARK    7  A    between atoms: C_6  and  C_7
REMARK    8  A    between atoms: C_6  and  C_8
REMARK    9  A    between atoms: C_9  and  C_10
REMARK   10  A    between atoms: C_10  and  C_11
REMARK   11  A    between atoms: C_16  and  O_17
REMARK   12  A    between atoms: O_17  and  C_18
REMARK                            x       y       z     vdW  Elec       q    Type
REMARK                         _______ _______ _______ _____ _____    ______ ____
ROOT
ATOM      1  C   UNL     1       4.487   1.694  -3.483  0.00  0.00    +0.000 A 
ATOM      2  C   UNL     1       4.237   2.901  -2.857  0.00  0.00    +0.000 A 
ATOM      3  N   UNL     1       3.809   3.799  -3.793  0.00  0.00    +0.000 N 
ATOM      4  C   UNL     1       3.862   3.237  -5.043  0.00  0.00    +0.000 A 
ATOM      5  C   UNL     1       3.557   3.793  -6.292  0.00  0.00    +0.000 A 
ATOM      6  C   UNL     1       3.718   2.995  -7.429  0.00  0.00    +0.000 A 
ATOM      7  C   UNL     1       4.169   1.681  -7.305  0.00  0.00    +0.000 A 
ATOM      8  C   UNL     1       4.453   1.133  -6.044  0.00  0.00    +0.000 A 
ATOM      9  C   UNL     1       4.296   1.921  -4.886  0.00  0.00    +0.000 A 
ATOM     10  H   UNL     1       3.515   4.746  -3.600  0.00  0.00    +0.000 HD
ENDROOT
BRANCH   6  11
ATOM     11  O   UNL     1       3.398   3.627  -8.603  0.00  0.00    +0.000 OA
ATOM     12  C   UNL     1       3.539   2.870  -9.797  0.00  0.00    +0.000 C 
ENDBRANCH   6  11
BRANCH   1  13
ATOM     13  C   UNL     1       4.929   0.413  -2.833  0.00  0.00    +0.000 C 
BRANCH  13  14
ATOM     14  C   UNL     1       4.363   0.166  -1.413  0.00  0.00    +0.000 C 
BRANCH  14  15
ATOM     15  N   UNL     1       2.892   0.027  -1.272  0.00  0.00    +0.000 NA
BRANCH  15  17
ATOM     16  C   UNL     1       2.800  -2.490  -1.709  0.00  0.00    +0.000 C 
ATOM     17  C   UNL     1       2.342  -1.077  -2.108  0.00  0.00    +0.000 C 
ATOM     18  C   UNL     1       0.807  -1.062  -2.193  0.00  0.00    +0.000 C 
ENDBRANCH  15  17
BRANCH  15  19
ATOM     19  C   UNL     1       2.469  -0.063   0.144  0.00  0.00    +0.000 C 
BRANCH  19  20
ATOM     20  C   UNL     1       2.942   1.051   1.116  0.00  0.00    +0.000 C 
ATOM     21  C   UNL     1       2.467   2.448   0.714  0.00  0.00    +0.000 C 
ATOM     22  C   UNL     1       2.440   0.745   2.531  0.00  0.00    +0.000 C 
ENDBRANCH  19  20
ENDBRANCH  15  19
ENDBRANCH  14  15
ENDBRANCH  13  14
ENDBRANCH   1  13
TORSDOF 7
