REMARK  Name = 
REMARK  7 active torsions:
REMARK  status: ('A' for Active; 'I' for Inactive)
REMARK    1  A    between atoms: C_1  and  N_2
REMARK    2  A    between atoms: N_2  and  C_3
REMARK    3  A    between atoms: N_2  and  C_4
REMARK    4  A    between atoms: C_4  and  C_5
REMARK    5  A    between atoms: C_5  and  C_6
REMARK    6  A    between atoms: C_11  and  O_12
REMARK    7  A    between atoms: O_12  and  C_13
REMARK                            x       y       z     vdW  Elec       q    Type
REMARK                         _______ _______ _______ _____ _____    ______ ____
ROOT
ATOM      1  C   UNL     1       4.891  -2.903   0.245  0.00  0.00    +0.000 A 
ATOM      2  C   UNL     1       6.166  -3.346   0.549  0.00  0.00    +0.000 A 
ATOM      3  N   UNL     1       6.160  -4.713   0.555  0.00  0.00    +0.000 N 
ATOM      4  C   UNL     1       4.904  -5.184   0.257  0.00  0.00    +0.000 A 
ATOM      5  C   UNL     1       4.437  -6.503   0.143  0.00  0.00    +0.000 A 
ATOM      6  C   UNL     1       3.088  -6.703  -0.179  0.00  0.00    +0.000 A 
ATOM      7  C   UNL     1       2.245  -5.610  -0.366  0.00  0.00    +0.000 A 
ATOM      8  C   UNL     1       2.729  -4.296  -0.247  0.00  0.00    +0.000 A 
ATOM      9  C   UNL     1       4.083  -4.074   0.065  0.00  0.00    +0.000 A 
ATOM     10  H   UNL     1       6.961  -5.300   0.746  0.00  0.00    +0.000 HD
ENDROOT
BRANCH   6  11
ATOM     11  O   UNL     1       2.722  -8.021  -0.283  0.00  0.00    +0.000 OA
ATOM     12  C   UNL     1       1.366  -8.279  -0.630  0.00  0.00    +0.000 C 
ENDBRANCH   6  11
BRANCH   1  13
ATOM     13  C   UNL     1       4.460  -1.468   0.129  0.00  0.00    +0.000 C 
BRANCH  13  14
ATOM     14  C   UNL     1       3.993  -0.897   1.482  0.00  0.00    +0.000 C 
BRANCH  14  16
ATOM     15  C   UNL     1       3.111   0.895   2.816  0.00  0.00    +0.000 C 
ATOM     16  N   UNL     1       3.557   0.518   1.469  0.00  0.00    +0.000 NA
ATOM     17  C   UNL     1       4.618   1.430   1.040  0.00  0.00    +0.000 C 
ENDBRANCH  14  16
ENDBRANCH  13  14
ENDBRANCH   1  13
TORSDOF 4
