REMARK  Name = 
REMARK  10 active torsions:
REMARK  status: ('A' for Active; 'I' for Inactive)
REMARK    1  A    between atoms: C_1  and  N_2
REMARK    2  A    between atoms: N_2  and  C_3
REMARK    3  A    between atoms: N_2  and  C_7
REMARK    4  A    between atoms: C_3  and  C_4
REMARK    5  A    between atoms: C_4  and  C_5
REMARK    6  A    between atoms: C_4  and  C_6
REMARK    7  A    between atoms: C_7  and  C_8
REMARK    8  A    between atoms: C_8  and  C_9
REMARK    9  A    between atoms: C_14  and  O_15
REMARK   10  A    between atoms: O_15  and  C_16
REMARK                            x       y       z     vdW  Elec       q    Type
REMARK                         _______ _______ _______ _____ _____    ______ ____
ROOT
ATOM      1  C   UNL     1       5.138  -1.930  -2.163  0.00  0.00    +0.000 A 
ATOM      2  C   UNL     1       5.392  -3.281  -2.012  0.00  0.00    +0.000 A 
ATOM      3  N   UNL     1       5.867  -3.764  -3.203  0.00  0.00    +0.000 N 
ATOM      4  C   UNL     1       5.932  -2.753  -4.133  0.00  0.00    +0.000 A 
ATOM      5  C   UNL     1       6.370  -2.773  -5.463  0.00  0.00    +0.000 A 
ATOM      6  C   UNL     1       6.330  -1.579  -6.193  0.00  0.00    +0.000 A 
ATOM      7  C   UNL     1       5.839  -0.414  -5.605  0.00  0.00    +0.000 A 
ATOM      8  C   UNL     1       5.402  -0.410  -4.272  0.00  0.00    +0.000 A 
ATOM      9  C   UNL     1       5.460  -1.597  -3.516  0.00  0.00    +0.000 A 
ATOM     10  H   UNL     1       6.141  -4.721  -3.379  0.00  0.00    +0.000 HD
ENDROOT
BRANCH   6  11
ATOM     11  O   UNL     1       6.802  -1.686  -7.475  0.00  0.00    +0.000 OA
ATOM     12  C   UNL     1       6.861  -0.485  -8.235  0.00  0.00    +0.000 C 
ENDBRANCH   6  11
BRANCH   1  13
ATOM     13  C   UNL     1       4.630  -0.997  -1.106  0.00  0.00    +0.000 C 
BRANCH  13  14
ATOM     14  C   UNL     1       3.093  -0.974  -1.042  0.00  0.00    +0.000 C 
BRANCH  14  16
ATOM     15  C   UNL     1       1.047  -0.078  -0.174  0.00  0.00    +0.000 C 
ATOM     16  N   UNL     1       2.511  -0.012  -0.074  0.00  0.00    +0.000 NA
BRANCH  16  17
ATOM     17  C   UNL     1       2.970  -0.277   1.304  0.00  0.00    +0.000 C 
BRANCH  17  18
ATOM     18  C   UNL     1       2.419   0.667   2.399  0.00  0.00    +0.000 C 
ATOM     19  C   UNL     1       2.966   0.237   3.765  0.00  0.00    +0.000 C 
ATOM     20  C   UNL     1       2.781   2.130   2.132  0.00  0.00    +0.000 C 
ENDBRANCH  17  18
ENDBRANCH  16  17
ENDBRANCH  14  16
ENDBRANCH  13  14
ENDBRANCH   1  13
TORSDOF 6
