REMARK  Name = 
REMARK  10 active torsions:
REMARK  status: ('A' for Active; 'I' for Inactive)
REMARK    1  A    between atoms: C_2  and  C_3
REMARK    2  A    between atoms: C_3  and  N_4
REMARK    3  A    between atoms: N_4  and  C_5
REMARK    4  A    between atoms: N_4  and  C_8
REMARK    5  A    between atoms: C_5  and  C_6
REMARK    6  A    between atoms: C_8  and  C_9
REMARK    7  A    between atoms: C_9  and  C_10
REMARK    8  A    between atoms: C_14  and  O_15
REMARK    9  A    between atoms: O_15  and  C_16
REMARK   10  A    between atoms: C_20  and  C_21
REMARK                            x       y       z     vdW  Elec       q    Type
REMARK                         _______ _______ _______ _____ _____    ______ ____
ROOT
ATOM      1  C   UNL     1       7.378   3.447   0.748  0.00  0.00    +0.000 A 
ATOM      2  N   UNL     1       6.750   4.595   0.326  0.00  0.00    +0.000 N 
ATOM      3  C   UNL     1       7.467   5.704   0.697  0.00  0.00    +0.000 A 
ATOM      4  C   UNL     1       7.199   7.065   0.497  0.00  0.00    +0.000 A 
ATOM      5  C   UNL     1       8.113   8.000   1.000  0.00  0.00    +0.000 A 
ATOM      6  C   UNL     1       9.255   7.571   1.674  0.00  0.00    +0.000 A 
ATOM      7  C   UNL     1       9.510   6.206   1.860  0.00  0.00    +0.000 A 
ATOM      8  C   UNL     1       8.601   5.251   1.365  0.00  0.00    +0.000 A 
ATOM      9  C   UNL     1       8.550   3.820   1.387  0.00  0.00    +0.000 A 
ATOM     10  C   UNL     1       9.560   2.911   1.993  0.00  0.00    +0.000 C 
ATOM     11  H   UNL     1       5.860   4.604  -0.162  0.00  0.00    +0.000 HD
ENDROOT
BRANCH   5  12
ATOM     12  O   UNL     1       7.774   9.307   0.765  0.00  0.00    +0.000 OA
ATOM     13  C   UNL     1       8.666  10.295   1.266  0.00  0.00    +0.000 C 
ENDBRANCH   5  12
BRANCH   1  14
ATOM     14  C   UNL     1       6.794   2.091   0.484  0.00  0.00    +0.000 C 
BRANCH  14  15
ATOM     15  C   UNL     1       5.249   2.049   0.496  0.00  0.00    +0.000 C 
BRANCH  15  16
ATOM     16  N   UNL     1       4.544   2.859  -0.545  0.00  0.00    +0.000 NA
BRANCH  16  17
ATOM     17  C   UNL     1       4.927   2.377  -1.887  0.00  0.00    +0.000 C 
BRANCH  17  19
ATOM     18  C   UNL     1       3.553   2.535  -3.981  0.00  0.00    +0.000 C 
ATOM     19  C   UNL     1       4.283   3.122  -3.023  0.00  0.00    +0.000 C 
ENDBRANCH  17  19
ENDBRANCH  16  17
BRANCH  16  20
ATOM     20  C   UNL     1       3.079   2.730  -0.357  0.00  0.00    +0.000 C 
BRANCH  20  21
ATOM     21  C   UNL     1       2.604   3.290   0.956  0.00  0.00    +0.000 C 
ATOM     22  C   UNL     1       1.937   2.584   1.880  0.00  0.00    +0.000 C 
ENDBRANCH  20  21
ENDBRANCH  16  20
ENDBRANCH  15  16
ENDBRANCH  14  15
ENDBRANCH   1  14
TORSDOF 8
