REMARK  Name = 
REMARK  5 active torsions:
REMARK  status: ('A' for Active; 'I' for Inactive)
REMARK    1  A    between atoms: N_1  and  C_2
REMARK    2  A    between atoms: C_2  and  C_3
REMARK    3  A    between atoms: C_3  and  C_4
REMARK    4  A    between atoms: C_9  and  O_10
REMARK    5  A    between atoms: O_10  and  C_11
REMARK                            x       y       z     vdW  Elec       q    Type
REMARK                         _______ _______ _______ _____ _____    ______ ____
ROOT
ATOM      1  C   UNL     1       4.489  -1.166  -0.989  0.00  0.00    +0.000 A 
ATOM      2  C   UNL     1       5.357  -1.922  -0.224  0.00  0.00    +0.000 A 
ATOM      3  N   UNL     1       6.640  -1.578  -0.560  0.00  0.00    +0.000 N 
ATOM      4  C   UNL     1       6.631  -0.605  -1.530  0.00  0.00    +0.000 A 
ATOM      5  C   UNL     1       7.693   0.054  -2.165  0.00  0.00    +0.000 A 
ATOM      6  C   UNL     1       7.391   1.023  -3.130  0.00  0.00    +0.000 A 
ATOM      7  C   UNL     1       6.063   1.306  -3.448  0.00  0.00    +0.000 A 
ATOM      8  C   UNL     1       5.012   0.639  -2.805  0.00  0.00    +0.000 A 
ATOM      9  C   UNL     1       5.296  -0.331  -1.824  0.00  0.00    +0.000 A 
ATOM     10  H   UNL     1       7.475  -1.974  -0.153  0.00  0.00    +0.000 HD
ENDROOT
BRANCH   6  11
ATOM     11  O   UNL     1       8.487   1.625  -3.690  0.00  0.00    +0.000 OA
ATOM     12  C   UNL     1       8.235   2.630  -4.665  0.00  0.00    +0.000 C 
ENDBRANCH   6  11
BRANCH   1  13
ATOM     13  C   UNL     1       2.994  -1.208  -0.950  0.00  0.00    +0.000 C 
BRANCH  13  14
ATOM     14  C   UNL     1       2.418  -2.224  -1.942  0.00  0.00    +0.000 C 
BRANCH  14  15
ATOM     15  N   UNL     1       0.954  -2.234  -1.914  0.00  0.00    +0.000 NA
ATOM     16  H   UNL     1       0.614  -2.901  -2.606  0.00  0.00    +0.000 HD
ATOM     17  H   UNL     1       0.603  -1.322  -2.202  0.00  0.00    +0.000 HD
ENDBRANCH  14  15
ENDBRANCH  13  14
ENDBRANCH   1  13
TORSDOF 4
