REMARK  Name = 
REMARK  6 active torsions:
REMARK  status: ('A' for Active; 'I' for Inactive)
REMARK    1  A    between atoms: C_1  and  N_2
REMARK    2  A    between atoms: N_2  and  C_3
REMARK    3  A    between atoms: N_2  and  C_4
REMARK    4  A    between atoms: C_4  and  C_5
REMARK    5  A    between atoms: C_5  and  C_6
REMARK    6  A    between atoms: C_11  and  C_12
REMARK                            x       y       z     vdW  Elec       q    Type
REMARK                         _______ _______ _______ _____ _____    ______ ____
ROOT
ATOM      1  C   UNL     1       4.882  -2.192   1.695  0.00  0.00    +0.000 A 
ATOM      2  C   UNL     1       5.576  -2.115   2.888  0.00  0.00    +0.000 A 
ATOM      3  N   UNL     1       5.701  -3.379   3.392  0.00  0.00    +0.000 N 
ATOM      4  C   UNL     1       5.094  -4.288   2.558  0.00  0.00    +0.000 A 
ATOM      5  C   UNL     1       4.941  -5.674   2.691  0.00  0.00    +0.000 A 
ATOM      6  C   UNL     1       4.262  -6.360   1.672  0.00  0.00    +0.000 A 
ATOM      7  C   UNL     1       4.033  -7.840   1.773  0.00  0.00    +0.000 C 
ATOM      8  C   UNL     1       3.783  -5.667   0.556  0.00  0.00    +0.000 A 
ATOM      9  C   UNL     1       3.943  -4.282   0.442  0.00  0.00    +0.000 A 
ATOM     10  C   UNL     1       4.599  -3.575   1.468  0.00  0.00    +0.000 A 
ATOM     11  H   UNL     1       6.156  -3.618   4.264  0.00  0.00    +0.000 HD
ENDROOT
BRANCH   1  12
ATOM     12  C   UNL     1       4.464  -1.043   0.831  0.00  0.00    +0.000 C 
BRANCH  12  13
ATOM     13  C   UNL     1       3.059  -0.540   1.216  0.00  0.00    +0.000 C 
BRANCH  13  15
ATOM     14  C   UNL     1       1.198   0.935   0.849  0.00  0.00    +0.000 C 
ATOM     15  N   UNL     1       2.548   0.580   0.398  0.00  0.00    +0.000 NA
ATOM     16  C   UNL     1       3.416   1.756   0.473  0.00  0.00    +0.000 C 
ENDBRANCH  13  15
ENDBRANCH  12  13
ENDBRANCH   1  12
TORSDOF 3
