REMARK  Name = 
REMARK  9 active torsions:
REMARK  status: ('A' for Active; 'I' for Inactive)
REMARK    1  A    between atoms: C_2  and  C_3
REMARK    2  A    between atoms: C_3  and  N_4
REMARK    3  A    between atoms: N_4  and  C_5
REMARK    4  A    between atoms: N_4  and  C_8
REMARK    5  A    between atoms: C_5  and  C_6
REMARK    6  A    between atoms: C_8  and  C_9
REMARK    7  A    between atoms: C_9  and  C_10
REMARK    8  A    between atoms: C_15  and  O_16
REMARK    9  A    between atoms: O_16  and  C_17
REMARK                            x       y       z     vdW  Elec       q    Type
REMARK                         _______ _______ _______ _____ _____    ______ ____
ROOT
ATOM      1  C   UNL     1       7.556  -1.970  -2.849  0.00  0.00    +0.000 A 
ATOM      2  C   UNL     1       7.961  -3.290  -2.794  0.00  0.00    +0.000 A 
ATOM      3  N   UNL     1       8.553  -3.609  -3.987  0.00  0.00    +0.000 N 
ATOM      4  C   UNL     1       8.550  -2.518  -4.823  0.00  0.00    +0.000 A 
ATOM      5  C   UNL     1       9.063  -2.364  -6.118  0.00  0.00    +0.000 A 
ATOM      6  C   UNL     1       8.917  -1.119  -6.744  0.00  0.00    +0.000 A 
ATOM      7  C   UNL     1       8.252  -0.080  -6.095  0.00  0.00    +0.000 A 
ATOM      8  C   UNL     1       7.745  -0.249  -4.800  0.00  0.00    +0.000 A 
ATOM      9  C   UNL     1       7.909  -1.484  -4.145  0.00  0.00    +0.000 A 
ATOM     10  H   UNL     1       8.944  -4.511  -4.223  0.00  0.00    +0.000 HD
ENDROOT
BRANCH   6  11
ATOM     11  O   UNL     1       9.473  -1.047  -7.995  0.00  0.00    +0.000 OA
ATOM     12  C   UNL     1       9.391   0.211  -8.656  0.00  0.00    +0.000 C 
ENDBRANCH   6  11
BRANCH   1  13
ATOM     13  C   UNL     1       6.875  -1.195  -1.760  0.00  0.00    +0.000 C 
BRANCH  13  14
ATOM     14  C   UNL     1       5.343  -1.312  -1.857  0.00  0.00    +0.000 C 
BRANCH  14  15
ATOM     15  N   UNL     1       4.559  -0.601  -0.817  0.00  0.00    +0.000 NA
BRANCH  15  16
ATOM     16  C   UNL     1       3.126  -0.790  -1.104  0.00  0.00    +0.000 C 
BRANCH  16  18
ATOM     17  C   UNL     1       1.281  -0.673   0.596  0.00  0.00    +0.000 C 
ATOM     18  C   UNL     1       2.202  -0.067  -0.164  0.00  0.00    +0.000 C 
ENDBRANCH  16  18
ENDBRANCH  15  16
BRANCH  15  19
ATOM     19  C   UNL     1       4.939  -0.985   0.552  0.00  0.00    +0.000 C 
BRANCH  19  20
ATOM     20  C   UNL     1       4.787  -2.445   0.879  0.00  0.00    +0.000 C 
ATOM     21  C   UNL     1       5.796  -3.264   1.208  0.00  0.00    +0.000 C 
ENDBRANCH  19  20
ENDBRANCH  15  19
ENDBRANCH  14  15
ENDBRANCH  13  14
ENDBRANCH   1  13
TORSDOF 8
