REMARK  Name = 
REMARK  5 active torsions:
REMARK  status: ('A' for Active; 'I' for Inactive)
REMARK    1  A    between atoms: C_1  and  N_2
REMARK    2  A    between atoms: N_2  and  C_3
REMARK    3  A    between atoms: N_2  and  C_4
REMARK    4  A    between atoms: C_4  and  C_5
REMARK    5  A    between atoms: C_5  and  C_6
REMARK                            x       y       z     vdW  Elec       q    Type
REMARK                         _______ _______ _______ _____ _____    ______ ____
ROOT
ATOM      1  C   UNL     1       4.893   2.147   1.942  0.00  0.00    +0.000 A 
ATOM      2  C   UNL     1       5.164   3.473   1.663  0.00  0.00    +0.000 A 
ATOM      3  N   UNL     1       5.607   4.074   2.809  0.00  0.00    +0.000 N 
ATOM      4  C   UNL     1       5.635   3.166   3.842  0.00  0.00    +0.000 A 
ATOM      5  C   UNL     1       6.036   3.331   5.175  0.00  0.00    +0.000 A 
ATOM      6  C   UNL     1       5.953   2.217   6.014  0.00  0.00    +0.000 A 
ATOM      7  C   UNL     1       5.481   1.004   5.530  0.00  0.00    +0.000 A 
ATOM      8  F   UNL     1       5.407  -0.046   6.362  0.00  0.00    +0.000 F 
ATOM      9  C   UNL     1       5.086   0.846   4.202  0.00  0.00    +0.000 A 
ATOM     10  C   UNL     1       5.173   1.951   3.332  0.00  0.00    +0.000 A 
ATOM     11  H   UNL     1       5.886   5.042   2.889  0.00  0.00    +0.000 HD
ENDROOT
BRANCH   1  12
ATOM     12  C   UNL     1       4.421   1.114   0.964  0.00  0.00    +0.000 C 
BRANCH  12  13
ATOM     13  C   UNL     1       2.887   1.066   0.857  0.00  0.00    +0.000 C 
BRANCH  13  15
ATOM     14  C   UNL     1       0.907   0.018  -0.021  0.00  0.00    +0.000 C 
ATOM     15  N   UNL     1       2.373   0.021  -0.054  0.00  0.00    +0.000 NA
ATOM     16  C   UNL     1       2.832   0.209  -1.431  0.00  0.00    +0.000 C 
ENDBRANCH  13  15
ENDBRANCH  12  13
ENDBRANCH   1  12
TORSDOF 3
