REMARK  Name = 
REMARK  9 active torsions:
REMARK  status: ('A' for Active; 'I' for Inactive)
REMARK    1  A    between atoms: C_2  and  C_3
REMARK    2  A    between atoms: C_3  and  N_4
REMARK    3  A    between atoms: N_4  and  C_5
REMARK    4  A    between atoms: N_4  and  C_8
REMARK    5  A    between atoms: C_5  and  C_6
REMARK    6  A    between atoms: C_8  and  C_9
REMARK    7  A    between atoms: C_9  and  C_10
REMARK    8  A    between atoms: C_17  and  C_18
REMARK    9  A    between atoms: C_18  and  C_19
REMARK                            x       y       z     vdW  Elec       q    Type
REMARK                         _______ _______ _______ _____ _____    ______ ____
ROOT
ATOM      1  C   UNL     1       7.515   2.174   2.764  0.00  0.00    +0.000 A 
ATOM      2  C   UNL     1       7.853   3.512   2.668  0.00  0.00    +0.000 A 
ATOM      3  N   UNL     1       8.472   3.880   3.823  0.00  0.00    +0.000 N 
ATOM      4  C   UNL     1       8.567   2.808   4.677  0.00  0.00    +0.000 A 
ATOM      5  C   UNL     1       9.134   2.754   5.951  0.00  0.00    +0.000 A 
ATOM      6  C   UNL     1       9.121   1.532   6.608  0.00  0.00    +0.000 A 
ATOM      7  C   UNL     1       8.564   0.405   6.007  0.00  0.00    +0.000 A 
ATOM      8  C   UNL     1       7.982   0.445   4.719  0.00  0.00    +0.000 A 
ATOM      9  C   UNL     1       7.985   1.703   4.043  0.00  0.00    +0.000 A 
ATOM     10  H   UNL     1       8.826   4.805   4.026  0.00  0.00    +0.000 HD
ENDROOT
BRANCH   8  11
ATOM     11  C   UNL     1       7.399  -0.808   4.092  0.00  0.00    +0.000 C 
ATOM     12  C   UNL     1       7.458  -2.105   4.891  0.00  0.00    +0.000 C 
ENDBRANCH   8  11
BRANCH   1  13
ATOM     13  C   UNL     1       6.816   1.413   1.677  0.00  0.00    +0.000 C 
BRANCH  13  14
ATOM     14  C   UNL     1       5.286   1.486   1.802  0.00  0.00    +0.000 C 
BRANCH  14  15
ATOM     15  N   UNL     1       4.519   0.769   0.750  0.00  0.00    +0.000 NA
BRANCH  15  16
ATOM     16  C   UNL     1       3.083   0.938   1.045  0.00  0.00    +0.000 C 
BRANCH  16  18
ATOM     17  C   UNL     1       1.213   0.873  -0.640  0.00  0.00    +0.000 C 
ATOM     18  C   UNL     1       2.140   0.248   0.099  0.00  0.00    +0.000 C 
ENDBRANCH  16  18
ENDBRANCH  15  16
BRANCH  15  19
ATOM     19  C   UNL     1       4.901   1.236  -0.595  0.00  0.00    +0.000 C 
BRANCH  19  20
ATOM     20  C   UNL     1       4.706   2.703  -0.858  0.00  0.00    +0.000 C 
ATOM     21  C   UNL     1       5.686   3.543  -1.165  0.00  0.00    +0.000 C 
ENDBRANCH  19  20
ENDBRANCH  15  19
ENDBRANCH  14  15
ENDBRANCH  13  14
ENDBRANCH   1  13
TORSDOF 8
