REMARK  Name = 
REMARK  4 active torsions:
REMARK  status: ('A' for Active; 'I' for Inactive)
REMARK    1  A    between atoms: C_1  and  C_2
REMARK    2  A    between atoms: C_1  and  N_12
REMARK    3  A    between atoms: C_1  and  C_13
REMARK    4  A    between atoms: C_2  and  C_3
REMARK                            x       y       z     vdW  Elec       q    Type
REMARK                         _______ _______ _______ _____ _____    ______ ____
ROOT
ATOM      1  C   UNL     1      -1.035  -0.815  -1.297  0.00  0.00    +0.000 A 
ATOM      2  C   UNL     1      -1.856  -0.021  -0.518  0.00  0.00    +0.000 A 
ATOM      3  N   UNL     1      -3.152  -0.234  -0.903  0.00  0.00    +0.000 N 
ATOM      4  C   UNL     1      -3.202  -1.163  -1.915  0.00  0.00    +0.000 A 
ATOM      5  C   UNL     1      -4.299  -1.666  -2.624  0.00  0.00    +0.000 A 
ATOM      6  C   UNL     1      -4.051  -2.624  -3.610  0.00  0.00    +0.000 A 
ATOM      7  C   UNL     1      -2.757  -3.069  -3.867  0.00  0.00    +0.000 A 
ATOM      8  C   UNL     1      -1.671  -2.554  -3.150  0.00  0.00    +0.000 A 
ATOM      9  C   UNL     1      -1.891  -1.573  -2.161  0.00  0.00    +0.000 A 
ATOM     10  H   UNL     1      -3.961   0.226  -0.507  0.00  0.00    +0.000 HD
ENDROOT
BRANCH   1  11
ATOM     11  C   UNL     1       0.464  -0.854  -1.246  0.00  0.00    +0.000 C 
BRANCH  11  12
ATOM     12  C   UNL     1       1.142  -0.393  -2.555  0.00  0.00    +0.000 C 
ATOM     13  C   UNL     1       0.782   1.046  -2.932  0.00  0.00    +0.000 C 
BRANCH  12  14
ATOM     14  N   UNL     1       2.605  -0.511  -2.437  0.00  0.00    +0.000 NA
ATOM     15  H   UNL     1       2.941   0.131  -1.719  0.00  0.00    +0.000 HD
ATOM     16  H   UNL     1       3.036  -0.205  -3.308  0.00  0.00    +0.000 HD
ENDBRANCH  12  14
ENDBRANCH  11  12
ENDBRANCH   1  11
TORSDOF 3
