REMARK  Name = 
REMARK  4 active torsions:
REMARK  status: ('A' for Active; 'I' for Inactive)
REMARK    1  A    between atoms: C_1  and  C_2
REMARK    2  A    between atoms: C_1  and  N_12
REMARK    3  A    between atoms: C_1  and  C_13
REMARK    4  A    between atoms: C_2  and  C_3
REMARK                            x       y       z     vdW  Elec       q    Type
REMARK                         _______ _______ _______ _____ _____    ______ ____
ROOT
ATOM      1  C   UNL     1       0.874   1.775  -1.741  0.00  0.00    +0.000 A 
ATOM      2  C   UNL     1       0.324   2.976  -1.335  0.00  0.00    +0.000 A 
ATOM      3  N   UNL     1       1.009   3.993  -1.942  0.00  0.00    +0.000 N 
ATOM      4  C   UNL     1       2.013   3.486  -2.731  0.00  0.00    +0.000 A 
ATOM      5  C   UNL     1       2.958   4.150  -3.523  0.00  0.00    +0.000 A 
ATOM      6  C   UNL     1       3.880   3.369  -4.226  0.00  0.00    +0.000 A 
ATOM      7  C   UNL     1       3.854   1.979  -4.139  0.00  0.00    +0.000 A 
ATOM      8  C   UNL     1       2.899   1.331  -3.345  0.00  0.00    +0.000 A 
ATOM      9  C   UNL     1       1.958   2.095  -2.625  0.00  0.00    +0.000 A 
ATOM     10  H   UNL     1       0.813   4.978  -1.829  0.00  0.00    +0.000 HD
ENDROOT
BRANCH   1  11
ATOM     11  C   UNL     1       0.422   0.405  -1.326  0.00  0.00    +0.000 C 
BRANCH  11  12
ATOM     12  C   UNL     1      -1.033   0.080  -1.732  0.00  0.00    +0.000 C 
ATOM     13  C   UNL     1      -1.433  -1.304  -1.220  0.00  0.00    +0.000 C 
BRANCH  12  14
ATOM     14  N   UNL     1      -1.238   0.115  -3.187  0.00  0.00    +0.000 NA
ATOM     15  H   UNL     1      -0.590  -0.529  -3.638  0.00  0.00    +0.000 HD
ATOM     16  H   UNL     1      -0.965   1.041  -3.526  0.00  0.00    +0.000 HD
ENDBRANCH  12  14
ENDBRANCH  11  12
ENDBRANCH   1  11
TORSDOF 3
