REMARK  Name = 
REMARK  6 active torsions:
REMARK  status: ('A' for Active; 'I' for Inactive)
REMARK    1  A    between atoms: C_1  and  N_2
REMARK    2  A    between atoms: N_2  and  C_3
REMARK    3  A    between atoms: N_2  and  C_4
REMARK    4  A    between atoms: C_4  and  C_5
REMARK    5  A    between atoms: C_5  and  C_6
REMARK    6  A    between atoms: C_11  and  O_12
REMARK                            x       y       z     vdW  Elec       q    Type
REMARK                         _______ _______ _______ _____ _____    ______ ____
ROOT
ATOM      1  C   UNL     1       4.968  -1.669  -2.298  0.00  0.00    +0.000 A 
ATOM      2  C   UNL     1       5.549  -1.213  -3.468  0.00  0.00    +0.000 A 
ATOM      3  N   UNL     1       5.729  -2.288  -4.300  0.00  0.00    +0.000 N 
ATOM      4  C   UNL     1       5.278  -3.440  -3.696  0.00  0.00    +0.000 A 
ATOM      5  C   UNL     1       5.233  -4.756  -4.176  0.00  0.00    +0.000 A 
ATOM      6  C   UNL     1       4.714  -5.725  -3.314  0.00  0.00    +0.000 A 
ATOM      7  C   UNL     1       4.276  -5.413  -2.035  0.00  0.00    +0.000 A 
ATOM      8  C   UNL     1       4.327  -4.095  -1.576  0.00  0.00    +0.000 A 
ATOM      9  C   UNL     1       4.824  -3.084  -2.426  0.00  0.00    +0.000 A 
ATOM     10  H   UNL     1       6.120  -2.241  -5.229  0.00  0.00    +0.000 HD
ENDROOT
BRANCH   6  11
ATOM     11  O   UNL     1       4.618  -7.032  -3.703  0.00  0.00    +0.000 OA
ATOM     12  H   UNL     1       4.942  -7.104  -4.615  0.00  0.00    +0.000 HD
ENDBRANCH   6  11
BRANCH   1  13
ATOM     13  C   UNL     1       4.555  -0.839  -1.123  0.00  0.00    +0.000 C 
BRANCH  13  14
ATOM     14  C   UNL     1       5.697  -0.690  -0.103  0.00  0.00    +0.000 C 
BRANCH  14  16
ATOM     15  C   UNL     1       6.536   0.164   1.977  0.00  0.00    +0.000 C 
ATOM     16  N   UNL     1       5.365   0.112   1.094  0.00  0.00    +0.000 NA
ATOM     17  C   UNL     1       4.956   1.474   0.746  0.00  0.00    +0.000 C 
ENDBRANCH  14  16
ENDBRANCH  13  14
ENDBRANCH   1  13
TORSDOF 4
