REMARK  Name = 
REMARK  7 active torsions:
REMARK  status: ('A' for Active; 'I' for Inactive)
REMARK    1  A    between atoms: C_2  and  C_3
REMARK    2  A    between atoms: C_3  and  N_4
REMARK    3  A    between atoms: N_4  and  C_5
REMARK    4  A    between atoms: N_4  and  C_8
REMARK    5  A    between atoms: C_5  and  C_6
REMARK    6  A    between atoms: C_8  and  C_9
REMARK    7  A    between atoms: C_9  and  C_10
REMARK                            x       y       z     vdW  Elec       q    Type
REMARK                         _______ _______ _______ _____ _____    ______ ____
ROOT
ATOM      1  C   UNL     1       7.499  -3.476  -0.741  0.00  0.00    +0.000 A 
ATOM      2  C   UNL     1       7.840  -4.399   0.229  0.00  0.00    +0.000 A 
ATOM      3  N   UNL     1       8.402  -5.483  -0.387  0.00  0.00    +0.000 N 
ATOM      4  C   UNL     1       8.442  -5.292  -1.748  0.00  0.00    +0.000 A 
ATOM      5  C   UNL     1       8.934  -6.126  -2.760  0.00  0.00    +0.000 A 
ATOM      6  C   UNL     1       8.844  -5.670  -4.077  0.00  0.00    +0.000 A 
ATOM      7  C   UNL     1       8.277  -4.432  -4.370  0.00  0.00    +0.000 A 
ATOM      8  C   UNL     1       7.787  -3.612  -3.345  0.00  0.00    +0.000 A 
ATOM      9  C   UNL     1       7.875  -4.043  -2.004  0.00  0.00    +0.000 A 
ATOM     10  H   UNL     1       8.742  -6.310   0.085  0.00  0.00    +0.000 HD
ENDROOT
BRANCH   1  11
ATOM     11  C   UNL     1       6.855  -2.141  -0.504  0.00  0.00    +0.000 C 
BRANCH  11  12
ATOM     12  C   UNL     1       5.317  -2.239  -0.526  0.00  0.00    +0.000 C 
BRANCH  12  13
ATOM     13  N   UNL     1       4.574  -0.970  -0.279  0.00  0.00    +0.000 NA
BRANCH  13  14
ATOM     14  C   UNL     1       4.949   0.034  -1.294  0.00  0.00    +0.000 C 
BRANCH  14  16
ATOM     15  C   UNL     1       3.517   1.908  -2.153  0.00  0.00    +0.000 C 
ATOM     16  C   UNL     1       4.238   1.353  -1.171  0.00  0.00    +0.000 C 
ENDBRANCH  14  16
ENDBRANCH  13  14
BRANCH  13  17
ATOM     17  C   UNL     1       3.118  -1.237  -0.334  0.00  0.00    +0.000 C 
BRANCH  17  18
ATOM     18  C   UNL     1       2.647  -2.176   0.744  0.00  0.00    +0.000 C 
ATOM     19  C   UNL     1       2.029  -3.343   0.513  0.00  0.00    +0.000 C 
ENDBRANCH  17  18
ENDBRANCH  13  17
ENDBRANCH  12  13
ENDBRANCH  11  12
ENDBRANCH   1  11
TORSDOF 7
