REMARK  Name = 
REMARK  10 active torsions:
REMARK  status: ('A' for Active; 'I' for Inactive)
REMARK    1  A    between atoms: C_1  and  C_2
REMARK    2  A    between atoms: C_2  and  C_3
REMARK    3  A    between atoms: C_2  and  N_4
REMARK    4  A    between atoms: N_4  and  C_5
REMARK    5  A    between atoms: N_4  and  C_9
REMARK    6  A    between atoms: C_5  and  C_6
REMARK    7  A    between atoms: C_6  and  C_7
REMARK    8  A    between atoms: C_6  and  C_8
REMARK    9  A    between atoms: C_9  and  C_10
REMARK   10  A    between atoms: C_10  and  C_11
REMARK                            x       y       z     vdW  Elec       q    Type
REMARK                         _______ _______ _______ _____ _____    ______ ____
ROOT
ATOM      1  C   UNL     1       5.144   0.359   1.737  0.00  0.00    +0.000 C 
ENDROOT
BRANCH   1   2
ATOM      2  C   UNL     1       4.767   0.720   3.147  0.00  0.00    +0.000 A 
ATOM      3  C   UNL     1       4.433  -0.151   4.166  0.00  0.00    +0.000 A 
ATOM      4  N   UNL     1       4.121   0.575   5.279  0.00  0.00    +0.000 N 
ATOM      5  C   UNL     1       4.330   1.913   5.049  0.00  0.00    +0.000 A 
ATOM      6  C   UNL     1       4.181   3.004   5.907  0.00  0.00    +0.000 A 
ATOM      7  C   UNL     1       4.488   4.269   5.404  0.00  0.00    +0.000 A 
ATOM      8  C   UNL     1       4.922   4.430   4.090  0.00  0.00    +0.000 A 
ATOM      9  C   UNL     1       5.049   3.326   3.237  0.00  0.00    +0.000 A 
ATOM     10  C   UNL     1       4.746   2.034   3.721  0.00  0.00    +0.000 A 
ATOM     11  H   UNL     1       3.805   0.186   6.155  0.00  0.00    +0.000 HD
ENDBRANCH   1   2
BRANCH   1  12
ATOM     12  C   UNL     1       4.445  -0.902   1.167  0.00  0.00    +0.000 C 
BRANCH  12  13
ATOM     13  N   UNL     1       2.968  -0.862   1.015  0.00  0.00    +0.000 NA
BRANCH  13  15
ATOM     14  C   UNL     1       2.960   0.172  -1.321  0.00  0.00    +0.000 C 
ATOM     15  C   UNL     1       2.518   0.263   0.149  0.00  0.00    +0.000 C 
ATOM     16  C   UNL     1       0.998   0.490   0.192  0.00  0.00    +0.000 C 
ENDBRANCH  13  15
BRANCH  13  17
ATOM     17  C   UNL     1       2.412  -2.168   0.592  0.00  0.00    +0.000 C 
BRANCH  17  18
ATOM     18  C   UNL     1       2.775  -3.420   1.436  0.00  0.00    +0.000 C 
ATOM     19  C   UNL     1       2.319  -3.326   2.895  0.00  0.00    +0.000 C 
ATOM     20  C   UNL     1       2.147  -4.666   0.802  0.00  0.00    +0.000 C 
ENDBRANCH  17  18
ENDBRANCH  13  17
ENDBRANCH  12  13
ENDBRANCH   1  12
TORSDOF 6
