REMARK  Name = 
REMARK  5 active torsions:
REMARK  status: ('A' for Active; 'I' for Inactive)
REMARK    1  A    between atoms: C_1  and  N_2
REMARK    2  A    between atoms: N_2  and  C_3
REMARK    3  A    between atoms: N_2  and  C_4
REMARK    4  A    between atoms: C_4  and  C_5
REMARK    5  A    between atoms: C_5  and  C_6
REMARK                            x       y       z     vdW  Elec       q    Type
REMARK                         _______ _______ _______ _____ _____    ______ ____
ROOT
ATOM      1  C   UNL     1       5.010   2.623   1.265  0.00  0.00    +0.000 A 
ATOM      2  C   UNL     1       5.247   3.796   0.573  0.00  0.00    +0.000 A 
ATOM      3  N   UNL     1       5.619   4.758   1.472  0.00  0.00    +0.000 N 
ATOM      4  C   UNL     1       5.644   4.237   2.743  0.00  0.00    +0.000 A 
ATOM      5  C   UNL     1       5.966   4.849   3.960  0.00  0.00    +0.000 A 
ATOM      6  C   UNL     1       5.919   4.061   5.113  0.00  0.00    +0.000 A 
ATOM      7  C   UNL     1       5.560   2.717   5.048  0.00  0.00    +0.000 A 
ATOM      8  C   UNL     1       5.233   2.123   3.823  0.00  0.00    +0.000 A 
ATOM      9  C   UNL     1       5.274   2.895   2.644  0.00  0.00    +0.000 A 
ATOM     10  H   UNL     1       5.849   5.713   1.239  0.00  0.00    +0.000 HD
ENDROOT
BRANCH   1  11
ATOM     11  C   UNL     1       4.563   1.321   0.670  0.00  0.00    +0.000 C 
BRANCH  11  12
ATOM     12  C   UNL     1       3.029   1.225   0.585  0.00  0.00    +0.000 C 
BRANCH  12  14
ATOM     13  C   UNL     1       1.050  -0.025   0.028  0.00  0.00    +0.000 C 
ATOM     14  N   UNL     1       2.517  -0.042   0.019  0.00  0.00    +0.000 NA
ATOM     15  C   UNL     1       2.994  -0.271  -1.347  0.00  0.00    +0.000 C 
ENDBRANCH  12  14
ENDBRANCH  11  12
ENDBRANCH   1  11
TORSDOF 3
