REMARK  Name = 
REMARK  8 active torsions:
REMARK  status: ('A' for Active; 'I' for Inactive)
REMARK    1  A    between atoms: C_1  and  C_2
REMARK    2  A    between atoms: C_2  and  N_3
REMARK    3  A    between atoms: C_2  and  C_4
REMARK    4  A    between atoms: C_4  and  C_5
REMARK    5  A    between atoms: C_7  and  O_8
REMARK    6  A    between atoms: O_8  and  C_9
REMARK    7  A    between atoms: C_13  and  O_14
REMARK    8  A    between atoms: O_14  and  C_15
REMARK                            x       y       z     vdW  Elec       q    Type
REMARK                         _______ _______ _______ _____ _____    ______ ____
ROOT
ATOM      1  C   UNL     1       4.502  -1.110   0.940  0.00  0.00    +0.000 A 
ATOM      2  C   UNL     1       5.345   0.026   0.822  0.00  0.00    +0.000 A 
ATOM      3  C   UNL     1       6.751  -0.021   0.852  0.00  0.00    +0.000 A 
ATOM      4  C   UNL     1       7.345  -1.272   0.989  0.00  0.00    +0.000 A 
ATOM      5 BR   UNL     1       9.207  -1.642   1.056  0.00  0.00    +0.000 Br
ATOM      6  C   UNL     1       6.525  -2.409   1.092  0.00  0.00    +0.000 A 
ATOM      7  C   UNL     1       5.117  -2.356   1.076  0.00  0.00    +0.000 A 
ENDROOT
BRANCH   3   8
ATOM      8  O   UNL     1       7.279   1.231   0.739  0.00  0.00    +0.000 OA
ATOM      9  C   UNL     1       8.675   1.450   0.774  0.00  0.00    +0.000 C 
ENDBRANCH   3   8
BRANCH   7  10
ATOM     10  O   UNL     1       4.601  -3.611   1.205  0.00  0.00    +0.000 OA
ATOM     11  C   UNL     1       3.214  -3.874   1.196  0.00  0.00    +0.000 C 
ENDBRANCH   7  10
BRANCH   1  12
ATOM     12  C   UNL     1       3.016  -0.819   0.916  0.00  0.00    +0.000 C 
BRANCH  12  14
ATOM     13  C   UNL     1       2.925   0.589   3.061  0.00  0.00    +0.000 C 
ATOM     14  C   UNL     1       2.368  -0.617   2.305  0.00  0.00    +0.000 C 
BRANCH  14  15
ATOM     15  N   UNL     1       0.915  -0.448   2.139  0.00  0.00    +0.000 NA
ATOM     16  H   UNL     1       0.729   0.388   1.586  0.00  0.00    +0.000 HD
ATOM     17  H   UNL     1       0.488  -0.275   3.049  0.00  0.00    +0.000 HD
ENDBRANCH  14  15
ENDBRANCH  12  14
ENDBRANCH   1  12
TORSDOF 5
