REMARK  Name = 
REMARK  10 active torsions:
REMARK  status: ('A' for Active; 'I' for Inactive)
REMARK    1  A    between atoms: C_1  and  C_2
REMARK    2  A    between atoms: C_2  and  N_3
REMARK    3  A    between atoms: C_2  and  C_4
REMARK    4  A    between atoms: C_4  and  C_5
REMARK    5  A    between atoms: C_7  and  O_8
REMARK    6  A    between atoms: O_8  and  C_9
REMARK    7  A    between atoms: C_10  and  C_11
REMARK    8  A    between atoms: C_11  and  C_12
REMARK    9  A    between atoms: C_14  and  O_15
REMARK   10  A    between atoms: O_15  and  C_16
REMARK                            x       y       z     vdW  Elec       q    Type
REMARK                         _______ _______ _______ _____ _____    ______ ____
ROOT
ATOM      1  C   UNL     1       4.479   0.987  -0.684  0.00  0.00    +0.000 A 
ATOM      2  C   UNL     1       5.087   2.198  -1.059  0.00  0.00    +0.000 A 
ATOM      3  C   UNL     1       6.479   2.370  -1.023  0.00  0.00    +0.000 A 
ATOM      4  C   UNL     1       7.300   1.292  -0.659  0.00  0.00    +0.000 A 
ATOM      5  C   UNL     1       6.704   0.053  -0.375  0.00  0.00    +0.000 A 
ATOM      6  C   UNL     1       5.316  -0.101  -0.360  0.00  0.00    +0.000 A 
ENDROOT
BRANCH   3   7
ATOM      7  O   UNL     1       7.125   3.540  -1.319  0.00  0.00    +0.000 OA
ATOM      8  C   UNL     1       6.316   4.686  -1.569  0.00  0.00    +0.000 C 
ENDBRANCH   3   7
BRANCH   4   9
ATOM      9  C   UNL     1       8.804   1.415  -0.554  0.00  0.00    +0.000 C 
ATOM     10  C   UNL     1       9.525   1.069  -1.847  0.00  0.00    +0.000 C 
ENDBRANCH   4   9
BRANCH   6  11
ATOM     11  O   UNL     1       4.689  -1.287  -0.058  0.00  0.00    +0.000 OA
ATOM     12  C   UNL     1       5.491  -2.296   0.550  0.00  0.00    +0.000 C 
ENDBRANCH   6  11
BRANCH   1  13
ATOM     13  C   UNL     1       2.968   0.810  -0.605  0.00  0.00    +0.000 C 
BRANCH  13  15
ATOM     14  C   UNL     1       0.558   1.512  -0.892  0.00  0.00    +0.000 C 
ATOM     15  C   UNL     1       2.014   1.994  -0.923  0.00  0.00    +0.000 C 
BRANCH  15  16
ATOM     16  N   UNL     1       2.097   3.116   0.023  0.00  0.00    +0.000 NA
ATOM     17  H   UNL     1       1.856   2.794   0.960  0.00  0.00    +0.000 HD
ATOM     18  H   UNL     1       3.052   3.457   0.095  0.00  0.00    +0.000 HD
ENDBRANCH  15  16
ENDBRANCH  13  15
ENDBRANCH   1  13
TORSDOF 6
