REMARK  Name = 
REMARK  8 active torsions:
REMARK  status: ('A' for Active; 'I' for Inactive)
REMARK    1  A    between atoms: C_1  and  C_2
REMARK    2  A    between atoms: C_2  and  N_3
REMARK    3  A    between atoms: C_2  and  C_4
REMARK    4  A    between atoms: C_4  and  C_5
REMARK    5  A    between atoms: C_7  and  O_8
REMARK    6  A    between atoms: O_8  and  C_9
REMARK    7  A    between atoms: C_13  and  O_14
REMARK    8  A    between atoms: O_14  and  C_15
REMARK                            x       y       z     vdW  Elec       q    Type
REMARK                         _______ _______ _______ _____ _____    ______ ____
ROOT
ATOM      1  C   UNL     1       4.554  -1.090  -0.704  0.00  0.00    +0.000 A 
ATOM      2  C   UNL     1       5.319  -2.285  -0.634  0.00  0.00    +0.000 A 
ATOM      3  C   UNL     1       6.729  -2.337  -0.682  0.00  0.00    +0.000 A 
ATOM      4  C   UNL     1       7.412  -1.127  -0.781  0.00  0.00    +0.000 A 
ATOM      5  I   UNL     1       9.487  -0.791  -0.797  0.00  0.00    +0.000 I 
ATOM      6  C   UNL     1       6.663   0.061  -0.868  0.00  0.00    +0.000 A 
ATOM      7  C   UNL     1       5.256   0.108  -0.844  0.00  0.00    +0.000 A 
ENDROOT
BRANCH   3   8
ATOM      8  O   UNL     1       7.158  -3.630  -0.610  0.00  0.00    +0.000 OA
ATOM      9  C   UNL     1       8.529  -3.967  -0.702  0.00  0.00    +0.000 C 
ENDBRANCH   3   8
BRANCH   7  10
ATOM     10  O   UNL     1       4.844   1.396  -0.987  0.00  0.00    +0.000 OA
ATOM     11  C   UNL     1       3.510   1.822  -0.814  0.00  0.00    +0.000 C 
ENDBRANCH   7  10
BRANCH   1  12
ATOM     12  C   UNL     1       3.053  -1.262  -0.605  0.00  0.00    +0.000 C 
BRANCH  12  14
ATOM     13  C   UNL     1       2.647  -2.659  -2.737  0.00  0.00    +0.000 C 
ATOM     14  C   UNL     1       2.296  -1.398  -1.945  0.00  0.00    +0.000 C 
BRANCH  14  15
ATOM     15  N   UNL     1       0.850  -1.403  -1.673  0.00  0.00    +0.000 NA
ATOM     16  H   UNL     1       0.597  -2.256  -1.167  0.00  0.00    +0.000 HD
ATOM     17  H   UNL     1       0.342  -1.459  -2.560  0.00  0.00    +0.000 HD
ENDBRANCH  14  15
ENDBRANCH  12  14
ENDBRANCH   1  12
TORSDOF 5
