REMARK  Name = 
REMARK  9 active torsions:
REMARK  status: ('A' for Active; 'I' for Inactive)
REMARK    1  A    between atoms: C_1  and  C_2
REMARK    2  A    between atoms: C_2  and  N_3
REMARK    3  A    between atoms: C_2  and  C_4
REMARK    4  A    between atoms: C_4  and  C_5
REMARK    5  A    between atoms: C_7  and  O_8
REMARK    6  A    between atoms: O_8  and  C_9
REMARK    7  A    between atoms: C_10  and  C_11
REMARK    8  A    between atoms: C_13  and  O_14
REMARK    9  A    between atoms: O_14  and  C_15
REMARK                            x       y       z     vdW  Elec       q    Type
REMARK                         _______ _______ _______ _____ _____    ______ ____
ROOT
ATOM      1  C   UNL     1       2.364  -2.484   0.144  0.00  0.00    +0.000 A 
ATOM      2  C   UNL     1       1.581  -2.262   1.301  0.00  0.00    +0.000 A 
ATOM      3  C   UNL     1       0.844  -3.281   1.918  0.00  0.00    +0.000 A 
ATOM      4  C   UNL     1       0.907  -4.573   1.390  0.00  0.00    +0.000 A 
ATOM      5  C   UNL     1       0.147  -5.727   1.991  0.00  0.00    +0.000 C 
ATOM      6  C   UNL     1       1.706  -4.808   0.262  0.00  0.00    +0.000 A 
ATOM      7  C   UNL     1       2.431  -3.784  -0.374  0.00  0.00    +0.000 A 
ENDROOT
BRANCH   3   8
ATOM      8  O   UNL     1       0.029  -3.096   3.002  0.00  0.00    +0.000 OA
ATOM      9  C   UNL     1      -0.134  -1.770   3.489  0.00  0.00    +0.000 C 
ENDBRANCH   3   8
BRANCH   7  10
ATOM     10  O   UNL     1       3.037  -4.208  -1.523  0.00  0.00    +0.000 OA
ATOM     11  C   UNL     1       4.330  -3.706  -1.826  0.00  0.00    +0.000 C 
ENDBRANCH   7  10
BRANCH   1  12
ATOM     12  C   UNL     1       3.004  -1.256  -0.467  0.00  0.00    +0.000 C 
BRANCH  12  14
ATOM     13  C   UNL     1       0.881   0.016  -1.109  0.00  0.00    +0.000 C 
ATOM     14  C   UNL     1       2.192  -0.604  -1.609  0.00  0.00    +0.000 C 
BRANCH  14  15
ATOM     15  N   UNL     1       3.009   0.437  -2.256  0.00  0.00    +0.000 NA
ATOM     16  H   UNL     1       3.644   0.868  -1.585  0.00  0.00    +0.000 HD
ATOM     17  H   UNL     1       2.417   1.187  -2.607  0.00  0.00    +0.000 HD
ENDBRANCH  14  15
ENDBRANCH  12  14
ENDBRANCH   1  12
TORSDOF 5
