REMARK  Name = 
REMARK  9 active torsions:
REMARK  status: ('A' for Active; 'I' for Inactive)
REMARK    1  A    between atoms: C_1  and  C_2
REMARK    2  A    between atoms: C_2  and  C_3
REMARK    3  A    between atoms: C_3  and  N_4
REMARK    4  A    between atoms: N_4  and  C_5
REMARK    5  A    between atoms: N_4  and  C_8
REMARK    6  A    between atoms: C_5  and  C_6
REMARK    7  A    between atoms: C_6  and  C_7
REMARK    8  A    between atoms: C_8  and  C_9
REMARK    9  A    between atoms: C_9  and  C_10
REMARK                            x       y       z     vdW  Elec       q    Type
REMARK                         _______ _______ _______ _____ _____    ______ ____
ROOT
ATOM      1  C   UNL     1       6.856   2.677  -3.337  0.00  0.00    +0.000 A 
ATOM      2  C   UNL     1       7.040   2.353  -4.668  0.00  0.00    +0.000 A 
ATOM      3  N   UNL     1       7.456   3.475  -5.333  0.00  0.00    +0.000 N 
ATOM      4  C   UNL     1       7.551   4.534  -4.462  0.00  0.00    +0.000 A 
ATOM      5  C   UNL     1       7.946   5.858  -4.694  0.00  0.00    +0.000 A 
ATOM      6  C   UNL     1       7.942   6.734  -3.604  0.00  0.00    +0.000 A 
ATOM      7  C   UNL     1       7.553   6.302  -2.339  0.00  0.00    +0.000 A 
ATOM      8  C   UNL     1       7.162   4.976  -2.126  0.00  0.00    +0.000 A 
ATOM      9  C   UNL     1       7.166   4.069  -3.204  0.00  0.00    +0.000 A 
ATOM     10  H   UNL     1       7.670   3.524  -6.319  0.00  0.00    +0.000 HD
ENDROOT
BRANCH   1  11
ATOM     11  C   UNL     1       6.419   1.740  -2.249  0.00  0.00    +0.000 C 
BRANCH  11  12
ATOM     12  C   UNL     1       4.886   1.700  -2.107  0.00  0.00    +0.000 C 
BRANCH  12  13
ATOM     13  N   UNL     1       4.348   0.761  -1.088  0.00  0.00    +0.000 NA
BRANCH  13  14
ATOM     14  C   UNL     1       2.875   0.890  -1.064  0.00  0.00    +0.000 C 
BRANCH  14  16
ATOM     15  C   UNL     1       2.483   0.390   1.417  0.00  0.00    +0.000 C 
ATOM     16  C   UNL     1       2.115   0.058  -0.021  0.00  0.00    +0.000 C 
ENDBRANCH  14  16
ENDBRANCH  13  14
BRANCH  13  17
ATOM     17  C   UNL     1       4.819  -0.624  -1.264  0.00  0.00    +0.000 C 
BRANCH  17  18
ATOM     18  C   UNL     1       4.502  -1.279  -2.616  0.00  0.00    +0.000 C 
ATOM     19  C   UNL     1       5.071  -2.687  -2.703  0.00  0.00    +0.000 C 
ENDBRANCH  17  18
ENDBRANCH  13  17
ENDBRANCH  12  13
ENDBRANCH  11  12
ENDBRANCH   1  11
TORSDOF 7
