REMARK  Name = 
REMARK  2 active torsions:
REMARK  status: ('A' for Active; 'I' for Inactive)
REMARK    1  A    between atoms: C_1  and  O_2
REMARK    2  A    between atoms: O_2  and  C_3
REMARK                            x       y       z     vdW  Elec       q    Type
REMARK                         _______ _______ _______ _____ _____    ______ ____
ROOT
ATOM      1  C   UNL     1      -0.176 -14.078   1.289  0.00  0.00    +0.000 A 
ATOM      2  C   UNL     1       1.206 -14.109   1.070  0.00  0.00    +0.000 A 
ATOM      3  C   UNL     1       1.894 -15.317   0.915  0.00  0.00    +0.000 A 
ATOM      4  C   UNL     1       1.108 -16.467   0.977  0.00  0.00    +0.000 A 
ATOM      5  N   UNL     1       1.408 -17.783   1.272  0.00  0.00    +0.000 N 
ATOM      6  C   UNL     1       0.218 -18.485   1.356  0.00  0.00    +0.000 A 
ATOM      7  C   UNL     1      -0.605 -17.787   0.489  0.00  0.00    +0.000 A 
ATOM      8  C   UNL     1      -0.284 -16.450   0.868  0.00  0.00    +0.000 A 
ATOM      9  C   UNL     1      -0.948 -15.229   1.086  0.00  0.00    +0.000 A 
ATOM     10  C   UNL     1      -0.931 -18.182  -0.952  0.00  0.00    +0.000 C 
ATOM     11  C   UNL     1      -0.688 -19.657  -1.354  0.00  0.00    +0.000 C 
ATOM     12  C   UNL     1      -0.684 -19.876  -2.876  0.00  0.00    +0.000 C 
ATOM     13  C   UNL     1       0.696 -20.418  -3.223  0.00  0.00    +0.000 C 
ATOM     14  N   UNL     1       1.213 -21.044  -2.014  0.00  0.00    +0.000 NA
ATOM     15  C   UNL     1       0.852 -22.452  -1.822  0.00  0.00    +0.000 C 
ATOM     16  C   UNL     1       0.079 -22.529  -0.515  0.00  0.00    +0.000 C 
ATOM     17  C   UNL     1       0.546 -21.288   0.239  0.00  0.00    +0.000 C 
ATOM     18  C   UNL     1       0.660 -20.260  -0.891  0.00  0.00    +0.000 C 
ATOM     19  C   UNL     1      -0.382 -20.944   1.402  0.00  0.00    +0.000 C 
ATOM     20  C   UNL     1       0.022 -19.704   2.173  0.00  0.00    +0.000 C 
ATOM     21  H   UNL     1       2.303 -18.091   1.618  0.00  0.00    +0.000 HD
ENDROOT
BRANCH   1  23
ATOM     22  C   UNL     1      -1.846 -12.938   2.505  0.00  0.00    +0.000 C 
ATOM     23  O   UNL     1      -0.680 -12.865   1.686  0.00  0.00    +0.000 OA
ENDBRANCH   1  23
TORSDOF 1
