REMARK  Name = 
REMARK  6 active torsions:
REMARK  status: ('A' for Active; 'I' for Inactive)
REMARK    1  A    between atoms: C_1  and  C_2
REMARK    2  A    between atoms: C_2  and  N_3
REMARK    3  A    between atoms: N_3  and  C_4
REMARK    4  A    between atoms: C_4  and  C_5
REMARK    5  A    between atoms: C_6  and  C_8
REMARK    6  A    between atoms: N_10  and  C_11
REMARK                            x       y       z     vdW  Elec       q    Type
REMARK                         _______ _______ _______ _____ _____    ______ ____
ROOT
ATOM      1  C   UNL     1       0.000   0.000   0.000  0.00  0.00    +0.000 C 
ATOM      2  C   UNL     1       0.000   0.000   0.000  0.00  0.00    +0.000 C 
ATOM      3  N   UNL     1       0.000   0.000   0.000  0.00  0.00    +0.000 NA
ATOM      4  C   UNL     1       0.000   0.000   0.000  0.00  0.00    +0.000 C 
ATOM      5  C   UNL     1       0.000   0.000   0.000  0.00  0.00    +0.000 C 
ATOM      6  C   UNL     1       0.000   0.000   0.000  0.00  0.00    +0.000 C 
ATOM      7  C   UNL     1       0.000   0.000   0.000  0.00  0.00    +0.000 C 
ATOM      8  C   UNL     1       0.000   0.000   0.000  0.00  0.00    +0.000 A 
ATOM      9  C   UNL     1       0.000   0.000   0.000  0.00  0.00    +0.000 A 
ATOM     10  N   UNL     1       0.000   0.000   0.000  0.00  0.00    +0.000 N 
ATOM     11  C   UNL     1       0.000   0.000   0.000  0.00  0.00    +0.000 A 
ATOM     12  C   UNL     1       0.000   0.000   0.000  0.00  0.00    +0.000 A 
ATOM     13  C   UNL     1       0.000   0.000   0.000  0.00  0.00    +0.000 A 
ATOM     14  C   UNL     1       0.000   0.000   0.000  0.00  0.00    +0.000 A 
ATOM     15  C   UNL     1       0.000   0.000   0.000  0.00  0.00    +0.000 A 
ATOM     16  C   UNL     1       0.000   0.000   0.000  0.00  0.00    +0.000 A 
ATOM     17  C   UNL     1       0.000   0.000   0.000  0.00  0.00    +0.000 C 
ATOM     18  H   UNL     1       0.000   0.000   0.000  0.00  0.00    +0.000 HD
ENDROOT
BRANCH   1  20
ATOM     19  N   UNL     1       0.000   0.000   0.000  0.00  0.00    +0.000 N 
ATOM     20  C   UNL     1       0.000   0.000   0.000  0.00  0.00    +0.000 C 
ATOM     21  O   UNL     1       0.000   0.000   0.000  0.00  0.00    +0.000 OA
BRANCH  19  23
ATOM     22  C   UNL     1       0.000   0.000   0.000  0.00  0.00    +0.000 C 
ATOM     23  C   UNL     1       0.000   0.000   0.000  0.00  0.00    +0.000 C 
ENDBRANCH  19  23
BRANCH  19  24
ATOM     24  C   UNL     1       0.000   0.000   0.000  0.00  0.00    +0.000 C 
ATOM     25  C   UNL     1       0.000   0.000   0.000  0.00  0.00    +0.000 C 
ENDBRANCH  19  24
ENDBRANCH   1  20
TORSDOF 3
