REMARK  Name = 
REMARK  4 active torsions:
REMARK  status: ('A' for Active; 'I' for Inactive)
REMARK    1  A    between atoms: C_1  and  C_2
REMARK    2  A    between atoms: C_2  and  N_3
REMARK    3  A    between atoms: C_2  and  C_4
REMARK    4  A    between atoms: C_4  and  C_5
REMARK                            x       y       z     vdW  Elec       q    Type
REMARK                         _______ _______ _______ _____ _____    ______ ____
ROOT
ATOM      1  C   UNL     1       4.526   1.228  -0.540  0.00  0.00    +0.000 A 
ATOM      2  C   UNL     1       5.293   0.040  -0.534  0.00  0.00    +0.000 A 
ATOM      3  C   UNL     1       6.693   0.084  -0.536  0.00  0.00    +0.000 A 
ATOM      4  C   UNL     1       7.297   1.321  -0.550  0.00  0.00    +0.000 A 
ATOM      5  C   UNL     1       6.561   2.482  -0.563  0.00  0.00    +0.000 A 
ATOM      6  C   UNL     1       5.182   2.471  -0.560  0.00  0.00    +0.000 A 
ATOM      7  O   UNL     1       7.345   3.593  -0.584  0.00  0.00    +0.000 OA
ATOM      8  C   UNL     1       8.659   2.998  -0.551  0.00  0.00    +0.000 C 
ATOM      9  O   UNL     1       8.636   1.555  -0.559  0.00  0.00    +0.000 OA
ENDROOT
BRANCH   1  10
ATOM     10  C   UNL     1       3.013   1.175  -0.567  0.00  0.00    +0.000 C 
BRANCH  10  12
ATOM     11  C   UNL     1       2.662   1.111   1.967  0.00  0.00    +0.000 C 
ATOM     12  C   UNL     1       2.357   0.445   0.625  0.00  0.00    +0.000 C 
BRANCH  12  13
ATOM     13  N   UNL     1       0.899   0.408   0.428  0.00  0.00    +0.000 NA
ATOM     14  H   UNL     1       0.527   1.358   0.427  0.00  0.00    +0.000 HD
ATOM     15  H   UNL     1       0.461  -0.060   1.222  0.00  0.00    +0.000 HD
ENDBRANCH  12  13
ENDBRANCH  10  12
ENDBRANCH   1  10
TORSDOF 3
