REMARK  Name = 
REMARK  4 active torsions:
REMARK  status: ('A' for Active; 'I' for Inactive)
REMARK    1  A    between atoms: C_1  and  C_2
REMARK    2  A    between atoms: C_1  and  N_12
REMARK    3  A    between atoms: C_1  and  C_13
REMARK    4  A    between atoms: C_2  and  C_3
REMARK                            x       y       z     vdW  Elec       q    Type
REMARK                         _______ _______ _______ _____ _____    ______ ____
ROOT
ATOM      1  C   UNL     1      -0.927  -0.899  -1.325  0.00  0.00    +0.000 A 
ATOM      2  C   UNL     1      -1.838  -0.397  -0.365  0.00  0.00    +0.000 A 
ATOM      3  C   UNL     1      -3.217  -0.575  -0.515  0.00  0.00    +0.000 A 
ATOM      4  C   UNL     1      -3.657  -1.261  -1.624  0.00  0.00    +0.000 A 
ATOM      5  C   UNL     1      -2.783  -1.754  -2.563  0.00  0.00    +0.000 A 
ATOM      6  C   UNL     1      -1.418  -1.592  -2.443  0.00  0.00    +0.000 A 
ATOM      7  O   UNL     1      -3.420  -2.406  -3.573  0.00  0.00    +0.000 OA
ATOM      8  C   UNL     1      -4.791  -2.307  -3.136  0.00  0.00    +0.000 C 
ATOM      9  O   UNL     1      -4.954  -1.541  -1.924  0.00  0.00    +0.000 OA
ENDROOT
BRANCH   1  10
ATOM     10  C   UNL     1       0.564  -0.726  -1.119  0.00  0.00    +0.000 C 
BRANCH  10  11
ATOM     11  C   UNL     1       1.287   0.061  -2.234  0.00  0.00    +0.000 C 
ATOM     12  C   UNL     1       0.794   1.504  -2.343  0.00  0.00    +0.000 C 
BRANCH  11  13
ATOM     13  N   UNL     1       2.734   0.064  -1.973  0.00  0.00    +0.000 NA
ATOM     14  H   UNL     1       2.924   0.533  -1.087  0.00  0.00    +0.000 HD
ATOM     15  H   UNL     1       3.207   0.617  -2.687  0.00  0.00    +0.000 HD
ENDBRANCH  11  13
ENDBRANCH  10  11
ENDBRANCH   1  10
TORSDOF 3
