REMARK  Name = 
REMARK  4 active torsions:
REMARK  status: ('A' for Active; 'I' for Inactive)
REMARK    1  A    between atoms: C_1  and  C_2
REMARK    2  A    between atoms: C_2  and  N_3
REMARK    3  A    between atoms: C_2  and  C_4
REMARK    4  A    between atoms: C_4  and  C_5
REMARK                            x       y       z     vdW  Elec       q    Type
REMARK                         _______ _______ _______ _____ _____    ______ ____
ROOT
ATOM      1  C   UNL     1       4.595  -0.238   1.426  0.00  0.00    +0.000 A 
ATOM      2  C   UNL     1       5.319   0.956   1.644  0.00  0.00    +0.000 A 
ATOM      3  C   UNL     1       6.717   0.958   1.668  0.00  0.00    +0.000 A 
ATOM      4  C   UNL     1       7.364  -0.241   1.464  0.00  0.00    +0.000 A 
ATOM      5  C   UNL     1       6.670  -1.408   1.252  0.00  0.00    +0.000 A 
ATOM      6  C   UNL     1       5.291  -1.442   1.227  0.00  0.00    +0.000 A 
ATOM      7  O   UNL     1       7.495  -2.475   1.074  0.00  0.00    +0.000 OA
ATOM      8  C   UNL     1       8.786  -1.834   1.147  0.00  0.00    +0.000 C 
ATOM      9  O   UNL     1       8.711  -0.424   1.440  0.00  0.00    +0.000 OA
ENDROOT
BRANCH   1  10
ATOM     10  C   UNL     1       3.080  -0.209   1.395  0.00  0.00    +0.000 C 
BRANCH  10  12
ATOM     11  C   UNL     1       2.780  -0.603   3.895  0.00  0.00    +0.000 C 
ATOM     12  C   UNL     1       2.411  -1.073   2.489  0.00  0.00    +0.000 C 
BRANCH  12  13
ATOM     13  N   UNL     1       0.950  -1.031   2.332  0.00  0.00    +0.000 NA
ATOM     14  H   UNL     1       0.611  -0.082   2.484  0.00  0.00    +0.000 HD
ATOM     15  H   UNL     1       0.516  -1.602   3.063  0.00  0.00    +0.000 HD
ENDBRANCH  12  13
ENDBRANCH  10  12
ENDBRANCH   1  10
TORSDOF 3
