REMARK  Name = 
REMARK  5 active torsions:
REMARK  status: ('A' for Active; 'I' for Inactive)
REMARK    1  A    between atoms: C_1  and  N_2
REMARK    2  A    between atoms: N_2  and  C_3
REMARK    3  A    between atoms: C_3  and  C_4
REMARK    4  A    between atoms: C_3  and  C_5
REMARK    5  A    between atoms: C_5  and  C_6
REMARK                            x       y       z     vdW  Elec       q    Type
REMARK                         _______ _______ _______ _____ _____    ______ ____
ROOT
ATOM      1  C   UNL     1       4.903   1.587  -2.465  0.00  0.00    +0.000 A 
ATOM      2  C   UNL     1       5.162   0.893  -3.669  0.00  0.00    +0.000 A 
ATOM      3  C   UNL     1       5.534   1.585  -4.827  0.00  0.00    +0.000 A 
ATOM      4  C   UNL     1       5.619   2.958  -4.757  0.00  0.00    +0.000 A 
ATOM      5  C   UNL     1       5.401   3.638  -3.583  0.00  0.00    +0.000 A 
ATOM      6  C   UNL     1       5.072   2.980  -2.419  0.00  0.00    +0.000 A 
ATOM      7  O   UNL     1       5.502   4.984  -3.730  0.00  0.00    +0.000 OA
ATOM      8  C   UNL     1       5.734   5.079  -5.149  0.00  0.00    +0.000 C 
ATOM      9  O   UNL     1       5.890   3.797  -5.793  0.00  0.00    +0.000 OA
ENDROOT
BRANCH   1  10
ATOM     10  C   UNL     1       4.352   0.861  -1.257  0.00  0.00    +0.000 C 
BRANCH  10  11
ATOM     11  C   UNL     1       2.798   0.803  -1.226  0.00  0.00    +0.000 C 
ATOM     12  C   UNL     1       2.172   2.206  -1.247  0.00  0.00    +0.000 C 
BRANCH  11  14
ATOM     13  C   UNL     1       0.951  -0.165   0.068  0.00  0.00    +0.000 C 
ATOM     14  N   UNL     1       2.390   0.048  -0.022  0.00  0.00    +0.000 NA
ATOM     15  H   UNL     1       2.852  -0.861  -0.032  0.00  0.00    +0.000 HD
ENDBRANCH  11  14
ENDBRANCH  10  11
ENDBRANCH   1  10
TORSDOF 3
