REMARK  Name = 
REMARK  6 active torsions:
REMARK  status: ('A' for Active; 'I' for Inactive)
REMARK    1  A    between atoms: C_1  and  O_2
REMARK    2  A    between atoms: O_2  and  C_3
REMARK    3  A    between atoms: C_9  and  C_10
REMARK    4  A    between atoms: C_10  and  C_11
REMARK    5  A    between atoms: C_11  and  N_12
REMARK    6  A    between atoms: C_13  and  C_14
REMARK                            x       y       z     vdW  Elec       q    Type
REMARK                         _______ _______ _______ _____ _____    ______ ____
ROOT
ATOM      1  C   UNL     1       2.978  -0.580   1.166  0.00  0.00    +0.000 A 
ATOM      2  C   UNL     1       2.613  -1.691   1.924  0.00  0.00    +0.000 A 
ATOM      3  C   UNL     1       3.307  -2.025   3.090  0.00  0.00    +0.000 A 
ATOM      4  C   UNL     1       4.384  -1.215   3.465  0.00  0.00    +0.000 A 
ATOM      5  N   UNL     1       5.215  -1.315   4.551  0.00  0.00    +0.000 N 
ATOM      6  C   UNL     1       6.130  -0.304   4.540  0.00  0.00    +0.000 A 
ATOM      7  C   UNL     1       5.922   0.477   3.417  0.00  0.00    +0.000 A 
ATOM      8  C   UNL     1       4.796  -0.100   2.729  0.00  0.00    +0.000 A 
ATOM      9  C   UNL     1       4.074   0.211   1.555  0.00  0.00    +0.000 A 
ATOM     10  H   UNL     1       5.146  -2.031   5.261  0.00  0.00    +0.000 HD
ENDROOT
BRANCH   1  12
ATOM     11  C   UNL     1       1.016  -0.621  -0.165  0.00  0.00    +0.000 C 
ATOM     12  O   UNL     1       2.364  -0.191   0.003  0.00  0.00    +0.000 OA
ENDBRANCH   1  12
BRANCH   7  13
ATOM     13  C   UNL     1       6.713   1.701   3.031  0.00  0.00    +0.000 C 
BRANCH  13  14
ATOM     14  C   UNL     1       8.190   1.614   3.451  0.00  0.00    +0.000 C 
BRANCH  14  15
ATOM     15  N   UNL     1       8.977   2.785   3.101  0.00  0.00    +0.000 N 
ATOM     16  C   UNL     1       9.166   3.817   3.992  0.00  0.00    +0.000 C 
ATOM     17  C   UNL     1      10.137   4.874   3.534  0.00  0.00    +0.000 C 
ATOM     18  O   UNL     1       8.612   3.882   5.085  0.00  0.00    +0.000 OA
ATOM     19  H   UNL     1       9.492   2.773   2.231  0.00  0.00    +0.000 HD
ENDBRANCH  14  15
ENDBRANCH  13  14
ENDBRANCH   7  13
TORSDOF 4
