REMARK  Name = 
REMARK  9 active torsions:
REMARK  status: ('A' for Active; 'I' for Inactive)
REMARK    1  A    between atoms: C_1  and  O_2
REMARK    2  A    between atoms: O_2  and  C_3
REMARK    3  A    between atoms: C_5  and  C_6
REMARK    4  A    between atoms: C_6  and  C_7
REMARK    5  A    between atoms: C_7  and  N_8
REMARK    6  A    between atoms: C_10  and  O_11
REMARK    7  A    between atoms: O_11  and  C_12
REMARK    8  A    between atoms: C_13  and  O_14
REMARK    9  A    between atoms: O_14  and  C_15
REMARK                            x       y       z     vdW  Elec       q    Type
REMARK                         _______ _______ _______ _____ _____    ______ ____
ROOT
ATOM      1  C   UNL     1       3.161  -0.993   0.585  0.00  0.00    +0.000 A 
ATOM      2  C   UNL     1       2.810  -2.332   0.347  0.00  0.00    +0.000 A 
ATOM      3  C   UNL     1       3.610  -3.393   0.796  0.00  0.00    +0.000 A 
ATOM      4  C   UNL     1       4.800  -3.098   1.468  0.00  0.00    +0.000 A 
ATOM      5  C   UNL     1       5.183  -1.770   1.693  0.00  0.00    +0.000 A 
ATOM      6  C   UNL     1       4.350  -0.707   1.288  0.00  0.00    +0.000 A 
ENDROOT
BRANCH   1   8
ATOM      7  C   UNL     1       1.060  -0.183  -0.194  0.00  0.00    +0.000 C 
ATOM      8  O   UNL     1       2.436   0.055   0.079  0.00  0.00    +0.000 OA
ENDBRANCH   1   8
BRANCH   5   9
ATOM      9  O   UNL     1       6.343  -1.439   2.356  0.00  0.00    +0.000 OA
ATOM     10  C   UNL     1       7.431  -2.340   2.182  0.00  0.00    +0.000 C 
ENDBRANCH   5   9
BRANCH   6  11
ATOM     11  O   UNL     1       4.827   0.551   1.580  0.00  0.00    +0.000 OA
ATOM     12  C   UNL     1       3.873   1.577   1.819  0.00  0.00    +0.000 C 
ENDBRANCH   6  11
BRANCH   3  13
ATOM     13  C   UNL     1       3.205  -4.827   0.542  0.00  0.00    +0.000 C 
BRANCH  13  14
ATOM     14  C   UNL     1       3.785  -5.384  -0.766  0.00  0.00    +0.000 C 
BRANCH  14  15
ATOM     15  N   UNL     1       3.394  -6.785  -0.960  0.00  0.00    +0.000 NA
ATOM     16  H   UNL     1       3.789  -7.359  -0.217  0.00  0.00    +0.000 HD
ATOM     17  H   UNL     1       3.803  -7.128  -1.829  0.00  0.00    +0.000 HD
ENDBRANCH  14  15
ENDBRANCH  13  14
ENDBRANCH   3  13
TORSDOF 6
