REMARK  Name = 
REMARK  9 active torsions:
REMARK  status: ('A' for Active; 'I' for Inactive)
REMARK    1  A    between atoms: C_1  and  N_2
REMARK    2  A    between atoms: N_2  and  C_3
REMARK    3  A    between atoms: N_2  and  C_4
REMARK    4  A    between atoms: C_4  and  C_5
REMARK    5  A    between atoms: C_5  and  C_6
REMARK    6  A    between atoms: C_12  and  O_13
REMARK    7  A    between atoms: O_13  and  P_14
REMARK    8  A    between atoms: P_14  and  O_16
REMARK    9  A    between atoms: P_14  and  O_17
REMARK                            x       y       z     vdW  Elec       q    Type
REMARK                         _______ _______ _______ _____ _____    ______ ____
ROOT
ATOM      1  C   UNL     1       4.931  -2.224   1.517  0.00  0.00    +0.000 A 
ATOM      2  N   UNL     1       5.813  -2.192   2.571  0.00  0.00    +0.000 N 
ATOM      3  C   UNL     1       5.910  -3.425   3.165  0.00  0.00    +0.000 A 
ATOM      4  C   UNL     1       6.613  -3.832   4.303  0.00  0.00    +0.000 A 
ATOM      5  C   UNL     1       6.465  -5.163   4.705  0.00  0.00    +0.000 A 
ATOM      6  C   UNL     1       5.678  -6.056   3.976  0.00  0.00    +0.000 A 
ATOM      7  C   UNL     1       5.020  -5.637   2.814  0.00  0.00    +0.000 A 
ATOM      8  C   UNL     1       5.116  -4.291   2.419  0.00  0.00    +0.000 A 
ATOM      9  C   UNL     1       4.531  -3.534   1.365  0.00  0.00    +0.000 A 
ATOM     10  H   UNL     1       6.256  -1.339   2.900  0.00  0.00    +0.000 HD
ENDROOT
BRANCH   1  11
ATOM     11  C   UNL     1       4.547  -0.991   0.763  0.00  0.00    +0.000 C 
BRANCH  11  12
ATOM     12  C   UNL     1       4.583   0.294   1.620  0.00  0.00    +0.000 C 
BRANCH  12  14
ATOM     13  C   UNL     1       6.905   0.900   1.182  0.00  0.00    +0.000 C 
ATOM     14  N   UNL     1       5.907   0.604   2.212  0.00  0.00    +0.000 NA
ATOM     15  C   UNL     1       5.787   1.733   3.138  0.00  0.00    +0.000 C 
ENDBRANCH  12  14
ENDBRANCH  11  12
ENDBRANCH   1  11
BRANCH   7  16
ATOM     16  O   UNL     1       4.227  -6.454   2.060  0.00  0.00    +0.000 OA
BRANCH  16  17
ATOM     17  P   UNL     1       4.581  -8.146   1.995  0.00  0.00    +0.000 P 
ATOM     18  O   UNL     1       3.569  -8.485   3.090  0.00  0.00    +0.000 OA
BRANCH  17  19
ATOM     19  O   UNL     1       3.801  -8.291   0.570  0.00  0.00    +0.000 OA
ATOM     20  H   UNL     1       4.383  -8.116  -0.189  0.00  0.00    +0.000 HD
ENDBRANCH  17  19
BRANCH  17  21
ATOM     21  O   UNL     1       4.936  -9.838   1.929  0.00  0.00    +0.000 OA
ATOM     22  H   UNL     1       4.103 -10.219   2.279  0.00  0.00    +0.000 HD
ENDBRANCH  17  21
ENDBRANCH  16  17
ENDBRANCH   7  16
TORSDOF 7
