REMARK  Name = 
REMARK  6 active torsions:
REMARK  status: ('A' for Active; 'I' for Inactive)
REMARK    1  A    between atoms: C_1  and  N_2
REMARK    2  A    between atoms: N_2  and  C_3
REMARK    3  A    between atoms: N_2  and  C_4
REMARK    4  A    between atoms: C_4  and  C_5
REMARK    5  A    between atoms: C_5  and  C_6
REMARK    6  A    between atoms: C_12  and  O_13
REMARK                            x       y       z     vdW  Elec       q    Type
REMARK                         _______ _______ _______ _____ _____    ______ ____
ROOT
ATOM      1  C   UNL     1       4.879   2.101  -2.111  0.00  0.00    +0.000 A 
ATOM      2  N   UNL     1       4.827   1.916  -3.472  0.00  0.00    +0.000 N 
ATOM      3  C   UNL     1       4.865   3.121  -4.127  0.00  0.00    +0.000 A 
ATOM      4  C   UNL     1       4.686   3.419  -5.480  0.00  0.00    +0.000 A 
ATOM      5  C   UNL     1       4.727   4.766  -5.850  0.00  0.00    +0.000 A 
ATOM      6  C   UNL     1       4.970   5.768  -4.910  0.00  0.00    +0.000 A 
ATOM      7  C   UNL     1       5.170   5.440  -3.566  0.00  0.00    +0.000 A 
ATOM      8  C   UNL     1       5.101   4.096  -3.156  0.00  0.00    +0.000 A 
ATOM      9  C   UNL     1       5.171   3.432  -1.898  0.00  0.00    +0.000 A 
ATOM     10  H   UNL     1       4.636   1.018  -3.904  0.00  0.00    +0.000 HD
ENDROOT
BRANCH   7  11
ATOM     11  O   UNL     1       5.386   6.424  -2.631  0.00  0.00    +0.000 OA
ATOM     12  H   UNL     1       5.373   7.281  -3.082  0.00  0.00    +0.000 HD
ENDBRANCH   7  11
BRANCH   1  13
ATOM     13  C   UNL     1       4.608   0.978  -1.158  0.00  0.00    +0.000 C 
BRANCH  13  14
ATOM     14  C   UNL     1       3.580  -0.043  -1.708  0.00  0.00    +0.000 C 
BRANCH  14  16
ATOM     15  C   UNL     1       5.161  -1.587  -2.741  0.00  0.00    +0.000 C 
ATOM     16  N   UNL     1       3.998  -0.725  -2.959  0.00  0.00    +0.000 NA
ATOM     17  C   UNL     1       2.886  -1.507  -3.504  0.00  0.00    +0.000 C 
ENDBRANCH  14  16
ENDBRANCH  13  14
ENDBRANCH   1  13
TORSDOF 4
