REMARK  Name = 
REMARK  4 active torsions:
REMARK  status: ('A' for Active; 'I' for Inactive)
REMARK    1  A    between atoms: N_1  and  C_2
REMARK    2  A    between atoms: C_2  and  C_3
REMARK    3  A    between atoms: C_3  and  C_4
REMARK    4  A    between atoms: C_11  and  O_12
REMARK                            x       y       z     vdW  Elec       q    Type
REMARK                         _______ _______ _______ _____ _____    ______ ____
ROOT
ATOM      1  C   UNL     1       4.427  -1.229  -0.655  0.00  0.00    +0.000 A 
ATOM      2  C   UNL     1       5.271  -0.132  -0.672  0.00  0.00    +0.000 A 
ATOM      3  N   UNL     1       6.561  -0.582  -0.669  0.00  0.00    +0.000 N 
ATOM      4  C   UNL     1       6.590  -1.956  -0.658  0.00  0.00    +0.000 A 
ATOM      5  C   UNL     1       7.682  -2.834  -0.657  0.00  0.00    +0.000 A 
ATOM      6  C   UNL     1       7.416  -4.205  -0.655  0.00  0.00    +0.000 A 
ATOM      7  C   UNL     1       6.107  -4.683  -0.652  0.00  0.00    +0.000 A 
ATOM      8  C   UNL     1       5.029  -3.790  -0.647  0.00  0.00    +0.000 A 
ATOM      9  C   UNL     1       5.263  -2.396  -0.651  0.00  0.00    +0.000 A 
ATOM     10  H   UNL     1       7.384   0.008  -0.682  0.00  0.00    +0.000 HD
ENDROOT
BRANCH   8  11
ATOM     11  O   UNL     1       3.744  -4.275  -0.639  0.00  0.00    +0.000 OA
ATOM     12  H   UNL     1       3.783  -5.244  -0.677  0.00  0.00    +0.000 HD
ENDBRANCH   8  11
BRANCH   1  13
ATOM     13  C   UNL     1       2.928  -1.191  -0.660  0.00  0.00    +0.000 C 
BRANCH  13  14
ATOM     14  C   UNL     1       2.336  -1.149   0.754  0.00  0.00    +0.000 C 
BRANCH  14  15
ATOM     15  N   UNL     1       0.869  -1.120   0.727  0.00  0.00    +0.000 NA
ATOM     16  H   UNL     1       0.521  -1.149   1.684  0.00  0.00    +0.000 HD
ATOM     17  H   UNL     1       0.532  -1.971   0.278  0.00  0.00    +0.000 HD
ENDBRANCH  14  15
ENDBRANCH  13  14
ENDBRANCH   1  13
TORSDOF 4
