REMARK  Name = 
REMARK  3 active torsions:
REMARK  status: ('A' for Active; 'I' for Inactive)
REMARK    1  A    between atoms: N_1  and  C_2
REMARK    2  A    between atoms: C_2  and  C_3
REMARK    3  A    between atoms: C_3  and  C_4
REMARK                            x       y       z     vdW  Elec       q    Type
REMARK                         _______ _______ _______ _____ _____    ______ ____
ROOT
ATOM      1  C   UNL     1       4.412   1.134  -0.791  0.00  0.00    +0.000 A 
ATOM      2  C   UNL     1       5.228   2.249  -0.768  0.00  0.00    +0.000 A 
ATOM      3  N   UNL     1       6.530   1.835  -0.771  0.00  0.00    +0.000 N 
ATOM      4  C   UNL     1       6.593   0.461  -0.793  0.00  0.00    +0.000 A 
ATOM      5  C   UNL     1       7.708  -0.386  -0.798  0.00  0.00    +0.000 A 
ATOM      6  C   UNL     1       7.475  -1.763  -0.832  0.00  0.00    +0.000 A 
ATOM      7  C   UNL     1       6.177  -2.267  -0.868  0.00  0.00    +0.000 A 
ATOM      8  C   UNL     1       5.073  -1.405  -0.863  0.00  0.00    +0.000 A 
ATOM      9  C   UNL     1       5.279  -0.009  -0.817  0.00  0.00    +0.000 A 
ATOM     10  H   UNL     1       7.337   2.444  -0.767  0.00  0.00    +0.000 HD
ENDROOT
BRANCH   1  11
ATOM     11  C   UNL     1       2.913   1.148  -0.804  0.00  0.00    +0.000 C 
BRANCH  11  12
ATOM     12  C   UNL     1       2.306   1.142   0.605  0.00  0.00    +0.000 C 
BRANCH  12  13
ATOM     13  N   UNL     1       0.842   1.193   0.560  0.00  0.00    +0.000 NA
ATOM     14  H   UNL     1       0.477   1.140   1.510  0.00  0.00    +0.000 HD
ATOM     15  H   UNL     1       0.486   0.373   0.072  0.00  0.00    +0.000 HD
ENDBRANCH  12  13
ENDBRANCH  11  12
ENDBRANCH   1  11
TORSDOF 3
