MODEL 1
REMARK VINA RESULT:    -5.377      0.000      0.000
REMARK INTER + INTRA:          -7.600
REMARK INTER:                  -7.106
REMARK INTRA:                  -0.494
REMARK UNBOUND:                -0.494
REMARK  Name = 
REMARK  9 active torsions:
REMARK  status: ('A' for Active; 'I' for Inactive)
REMARK    1  A    between atoms: N_1  and  C_2
REMARK    2  A    between atoms: C_2  and  C_3
REMARK    3  A    between atoms: C_3  and  C_4
REMARK    4  A    between atoms: C_6  and  O_7
REMARK    5  A    between atoms: O_7  and  C_8
REMARK    6  A    between atoms: C_9  and  C_10
REMARK    7  A    between atoms: C_10  and  C_11
REMARK    8  A    between atoms: C_13  and  O_14
REMARK    9  A    between atoms: O_14  and  C_15
REMARK                            x       y       z     vdW  Elec       q    Type
REMARK                         _______ _______ _______ _____ _____    ______ ____
ROOT
ATOM      1  C   UNL     1      97.555 106.184  91.577  0.00  0.00    +0.000 A 
ATOM      2  C   UNL     1      97.573 105.798  92.932  0.00  0.00    +0.000 A 
ATOM      3  C   UNL     1      97.423 106.735  93.963  0.00  0.00    +0.000 A 
ATOM      4  C   UNL     1      97.190 108.080  93.642  0.00  0.00    +0.000 A 
ATOM      5  C   UNL     1      97.168 108.463  92.291  0.00  0.00    +0.000 A 
ATOM      6  C   UNL     1      97.379 107.539  91.261  0.00  0.00    +0.000 A 
ENDROOT
BRANCH   3   7
ATOM      7  O   UNL     1      97.492 106.440  95.301  0.00  0.00    +0.000 OA
ATOM      8  C   UNL     1      96.587 105.467  95.802  0.00  0.00    +0.000 C 
ENDBRANCH   3   7
BRANCH   4   9
ATOM      9  C   UNL     1      96.979 109.143  94.696  0.00  0.00    +0.000 C 
ATOM     10  C   UNL     1      95.510 109.351  95.035  0.00  0.00    +0.000 C 
ENDBRANCH   4   9
BRANCH   6  11
ATOM     11  O   UNL     1      97.417 107.895  89.937  0.00  0.00    +0.000 OA
ATOM     12  C   UNL     1      98.563 108.645  89.538  0.00  0.00    +0.000 C 
ENDBRANCH   6  11
BRANCH   1  13
ATOM     13  C   UNL     1      97.756 105.117  90.515  0.00  0.00    +0.000 C 
BRANCH  13  14
ATOM     14  C   UNL     1      96.450 104.710  89.819  0.00  0.00    +0.000 C 
BRANCH  14  15
ATOM     15  N   UNL     1      96.433 105.163  88.424  0.00  0.00    +0.000 NA
ATOM     16  H   UNL     1      97.346 105.545  88.182  0.00  0.00    +0.000 HD
ATOM     17  H   UNL     1      95.769 105.931  88.323  0.00  0.00    +0.000 HD
ENDBRANCH  14  15
ENDBRANCH  13  14
ENDBRANCH   1  13
TORSDOF 6
ENDMDL
MODEL 2
REMARK VINA RESULT:    -5.372      6.956      9.031
REMARK INTER + INTRA:          -7.594
REMARK INTER:                  -7.318
REMARK INTRA:                  -0.276
REMARK UNBOUND:                -0.494
REMARK  Name = 
REMARK  9 active torsions:
REMARK  status: ('A' for Active; 'I' for Inactive)
REMARK    1  A    between atoms: N_1  and  C_2
REMARK    2  A    between atoms: C_2  and  C_3
REMARK    3  A    between atoms: C_3  and  C_4
REMARK    4  A    between atoms: C_6  and  O_7
REMARK    5  A    between atoms: O_7  and  C_8
REMARK    6  A    between atoms: C_9  and  C_10
REMARK    7  A    between atoms: C_10  and  C_11
REMARK    8  A    between atoms: C_13  and  O_14
REMARK    9  A    between atoms: O_14  and  C_15
REMARK                            x       y       z     vdW  Elec       q    Type
REMARK                         _______ _______ _______ _____ _____    ______ ____
ROOT
ATOM      1  C   UNL     1     100.620 103.772  98.864  0.00  0.00    +0.000 A 
ATOM      2  C   UNL     1      99.779 103.172  99.823  0.00  0.00    +0.000 A 
ATOM      3  C   UNL     1      99.880 103.485 101.185  0.00  0.00    +0.000 A 
ATOM      4  C   UNL     1     100.795 104.462 101.601  0.00  0.00    +0.000 A 
ATOM      5  C   UNL     1     101.629 105.064 100.644  0.00  0.00    +0.000 A 
ATOM      6  C   UNL     1     101.574 104.707  99.291  0.00  0.00    +0.000 A 
ENDROOT
BRANCH   3   7
ATOM      7  O   UNL     1      99.139 102.895 102.177  0.00  0.00    +0.000 OA
ATOM      8  C   UNL     1      99.519 101.590 102.588  0.00  0.00    +0.000 C 
ENDBRANCH   3   7
BRANCH   4   9
ATOM      9  C   UNL     1     100.935 104.884 103.045  0.00  0.00    +0.000 C 
ATOM     10  C   UNL     1     101.091 106.390 103.205  0.00  0.00    +0.000 C 
ENDBRANCH   4   9
BRANCH   6  11
ATOM     11  O   UNL     1     102.414 105.239  98.346  0.00  0.00    +0.000 OA
ATOM     12  C   UNL     1     102.857 106.570  98.601  0.00  0.00    +0.000 C 
ENDBRANCH   6  11
BRANCH   1  13
ATOM     13  C   UNL     1     100.474 103.359  97.410  0.00  0.00    +0.000 C 
BRANCH  13  14
ATOM     14  C   UNL     1      99.030 103.453  96.902  0.00  0.00    +0.000 C 
BRANCH  14  15
ATOM     15  N   UNL     1      98.498 102.126  96.575  0.00  0.00    +0.000 NA
ATOM     16  H   UNL     1      98.316 102.072  95.574  0.00  0.00    +0.000 HD
ATOM     17  H   UNL     1      97.597 101.997  97.034  0.00  0.00    +0.000 HD
ENDBRANCH  14  15
ENDBRANCH  13  14
ENDBRANCH   1  13
TORSDOF 6
ENDMDL
MODEL 3
REMARK VINA RESULT:    -5.291      1.733      2.810
REMARK INTER + INTRA:          -7.486
REMARK INTER:                  -7.020
REMARK INTRA:                  -0.467
REMARK UNBOUND:                -0.494
REMARK  Name = 
REMARK  9 active torsions:
REMARK  status: ('A' for Active; 'I' for Inactive)
REMARK    1  A    between atoms: N_1  and  C_2
REMARK    2  A    between atoms: C_2  and  C_3
REMARK    3  A    between atoms: C_3  and  C_4
REMARK    4  A    between atoms: C_6  and  O_7
REMARK    5  A    between atoms: O_7  and  C_8
REMARK    6  A    between atoms: C_9  and  C_10
REMARK    7  A    between atoms: C_10  and  C_11
REMARK    8  A    between atoms: C_13  and  O_14
REMARK    9  A    between atoms: O_14  and  C_15
REMARK                            x       y       z     vdW  Elec       q    Type
REMARK                         _______ _______ _______ _____ _____    ______ ____
ROOT
ATOM      1  C   UNL     1      95.949 106.738  90.913  0.00  0.00    +0.000 A 
ATOM      2  C   UNL     1      95.563 107.471  92.053  0.00  0.00    +0.000 A 
ATOM      3  C   UNL     1      96.275 107.382  93.257  0.00  0.00    +0.000 A 
ATOM      4  C   UNL     1      97.434 106.595  93.315  0.00  0.00    +0.000 A 
ATOM      5  C   UNL     1      97.820 105.869  92.177  0.00  0.00    +0.000 A 
ATOM      6  C   UNL     1      97.075 105.906  90.992  0.00  0.00    +0.000 A 
ENDROOT
BRANCH   3   7
ATOM      7  O   UNL     1      95.922 108.017  94.420  0.00  0.00    +0.000 OA
ATOM      8  C   UNL     1      95.316 109.297  94.308  0.00  0.00    +0.000 C 
ENDBRANCH   3   7
BRANCH   4   9
ATOM      9  C   UNL     1      98.278 106.480  94.564  0.00  0.00    +0.000 C 
ATOM     10  C   UNL     1      98.011 105.196  95.336  0.00  0.00    +0.000 C 
ENDBRANCH   4   9
BRANCH   6  11
ATOM     11  O   UNL     1      97.399 105.164  89.884  0.00  0.00    +0.000 OA
ATOM     12  C   UNL     1      98.472 105.679  89.098  0.00  0.00    +0.000 C 
ENDBRANCH   6  11
BRANCH   1  13
ATOM     13  C   UNL     1      95.109 106.860  89.654  0.00  0.00    +0.000 C 
BRANCH  13  14
ATOM     14  C   UNL     1      94.211 105.639  89.411  0.00  0.00    +0.000 C 
BRANCH  14  15
ATOM     15  N   UNL     1      94.759 104.782  88.355  0.00  0.00    +0.000 NA
ATOM     16  H   UNL     1      94.263 104.962  87.482  0.00  0.00    +0.000 HD
ATOM     17  H   UNL     1      94.584 103.804  88.583  0.00  0.00    +0.000 HD
ENDBRANCH  14  15
ENDBRANCH  13  14
ENDBRANCH   1  13
TORSDOF 6
ENDMDL
MODEL 4
REMARK VINA RESULT:    -5.213      2.093      5.394
REMARK INTER + INTRA:          -7.383
REMARK INTER:                  -7.177
REMARK INTRA:                  -0.207
REMARK UNBOUND:                -0.494
REMARK  Name = 
REMARK  9 active torsions:
REMARK  status: ('A' for Active; 'I' for Inactive)
REMARK    1  A    between atoms: N_1  and  C_2
REMARK    2  A    between atoms: C_2  and  C_3
REMARK    3  A    between atoms: C_3  and  C_4
REMARK    4  A    between atoms: C_6  and  O_7
REMARK    5  A    between atoms: O_7  and  C_8
REMARK    6  A    between atoms: C_9  and  C_10
REMARK    7  A    between atoms: C_10  and  C_11
REMARK    8  A    between atoms: C_13  and  O_14
REMARK    9  A    between atoms: O_14  and  C_15
REMARK                            x       y       z     vdW  Elec       q    Type
REMARK                         _______ _______ _______ _____ _____    ______ ____
ROOT
ATOM      1  C   UNL     1      97.150 108.124  93.626  0.00  0.00    +0.000 A 
ATOM      2  C   UNL     1      97.124 108.570  92.289  0.00  0.00    +0.000 A 
ATOM      3  C   UNL     1      97.336 107.690  91.219  0.00  0.00    +0.000 A 
ATOM      4  C   UNL     1      97.517 106.324  91.477  0.00  0.00    +0.000 A 
ATOM      5  C   UNL     1      97.538 105.880  92.809  0.00  0.00    +0.000 A 
ATOM      6  C   UNL     1      97.390 106.766  93.882  0.00  0.00    +0.000 A 
ENDROOT
BRANCH   3   7
ATOM      7  O   UNL     1      97.386 108.065  89.901  0.00  0.00    +0.000 OA
ATOM      8  C   UNL     1      98.616 108.581  89.415  0.00  0.00    +0.000 C 
ENDBRANCH   3   7
BRANCH   4   9
ATOM      9  C   UNL     1      97.711 105.307  90.376  0.00  0.00    +0.000 C 
ATOM     10  C   UNL     1      96.395 104.799  89.806  0.00  0.00    +0.000 C 
ENDBRANCH   4   9
BRANCH   6  11
ATOM     11  O   UNL     1      97.461 106.368  95.194  0.00  0.00    +0.000 OA
ATOM     12  C   UNL     1      98.751 105.950  95.636  0.00  0.00    +0.000 C 
ENDBRANCH   6  11
BRANCH   1  13
ATOM     13  C   UNL     1      96.945 109.142  94.735  0.00  0.00    +0.000 C 
BRANCH  13  14
ATOM     14  C   UNL     1      95.520 109.130  95.303  0.00  0.00    +0.000 C 
BRANCH  14  15
ATOM     15  N   UNL     1      94.582 109.792  94.389  0.00  0.00    +0.000 NA
ATOM     16  H   UNL     1      93.902 110.324  94.930  0.00  0.00    +0.000 HD
ATOM     17  H   UNL     1      94.049 109.088  93.879  0.00  0.00    +0.000 HD
ENDBRANCH  14  15
ENDBRANCH  13  14
ENDBRANCH   1  13
TORSDOF 6
ENDMDL
MODEL 5
REMARK VINA RESULT:    -5.146      7.806      9.957
REMARK INTER + INTRA:          -7.294
REMARK INTER:                  -6.973
REMARK INTRA:                  -0.321
REMARK UNBOUND:                -0.494
REMARK  Name = 
REMARK  9 active torsions:
REMARK  status: ('A' for Active; 'I' for Inactive)
REMARK    1  A    between atoms: N_1  and  C_2
REMARK    2  A    between atoms: C_2  and  C_3
REMARK    3  A    between atoms: C_3  and  C_4
REMARK    4  A    between atoms: C_6  and  O_7
REMARK    5  A    between atoms: O_7  and  C_8
REMARK    6  A    between atoms: C_9  and  C_10
REMARK    7  A    between atoms: C_10  and  C_11
REMARK    8  A    between atoms: C_13  and  O_14
REMARK    9  A    between atoms: O_14  and  C_15
REMARK                            x       y       z     vdW  Elec       q    Type
REMARK                         _______ _______ _______ _____ _____    ______ ____
ROOT
ATOM      1  C   UNL     1      94.436 115.825  93.988  0.00  0.00    +0.000 A 
ATOM      2  C   UNL     1      95.533 116.664  93.707  0.00  0.00    +0.000 A 
ATOM      3  C   UNL     1      96.853 116.221  93.862  0.00  0.00    +0.000 A 
ATOM      4  C   UNL     1      97.093 114.894  94.248  0.00  0.00    +0.000 A 
ATOM      5  C   UNL     1      95.999 114.058  94.524  0.00  0.00    +0.000 A 
ATOM      6  C   UNL     1      94.680 114.517  94.430  0.00  0.00    +0.000 A 
ENDROOT
BRANCH   3   7
ATOM      7  O   UNL     1      97.965 116.999  93.666  0.00  0.00    +0.000 OA
ATOM      8  C   UNL     1      97.896 118.354  94.085  0.00  0.00    +0.000 C 
ENDBRANCH   3   7
BRANCH   4   9
ATOM      9  C   UNL     1      98.488 114.330  94.399  0.00  0.00    +0.000 C 
ATOM     10  C   UNL     1      98.922 114.220  95.853  0.00  0.00    +0.000 C 
ENDBRANCH   4   9
BRANCH   6  11
ATOM     11  O   UNL     1      93.596 113.738  94.747  0.00  0.00    +0.000 OA
ATOM     12  C   UNL     1      93.826 112.331  94.719  0.00  0.00    +0.000 C 
ENDBRANCH   6  11
BRANCH   1  13
ATOM     13  C   UNL     1      93.034 116.386  93.828  0.00  0.00    +0.000 C 
BRANCH  13  14
ATOM     14  C   UNL     1      92.998 117.689  93.019  0.00  0.00    +0.000 C 
BRANCH  14  15
ATOM     15  N   UNL     1      92.370 117.481  91.710  0.00  0.00    +0.000 NA
ATOM     16  H   UNL     1      91.806 118.296  91.473  0.00  0.00    +0.000 HD
ATOM     17  H   UNL     1      91.724 116.695  91.762  0.00  0.00    +0.000 HD
ENDBRANCH  14  15
ENDBRANCH  13  14
ENDBRANCH   1  13
TORSDOF 6
ENDMDL
MODEL 6
REMARK VINA RESULT:    -5.142      2.587      4.895
REMARK INTER + INTRA:          -7.290
REMARK INTER:                  -6.943
REMARK INTRA:                  -0.347
REMARK UNBOUND:                -0.494
REMARK  Name = 
REMARK  9 active torsions:
REMARK  status: ('A' for Active; 'I' for Inactive)
REMARK    1  A    between atoms: N_1  and  C_2
REMARK    2  A    between atoms: C_2  and  C_3
REMARK    3  A    between atoms: C_3  and  C_4
REMARK    4  A    between atoms: C_6  and  O_7
REMARK    5  A    between atoms: O_7  and  C_8
REMARK    6  A    between atoms: C_9  and  C_10
REMARK    7  A    between atoms: C_10  and  C_11
REMARK    8  A    between atoms: C_13  and  O_14
REMARK    9  A    between atoms: O_14  and  C_15
REMARK                            x       y       z     vdW  Elec       q    Type
REMARK                         _______ _______ _______ _____ _____    ______ ____
ROOT
ATOM      1  C   UNL     1      97.340 106.605  93.372  0.00  0.00    +0.000 A 
ATOM      2  C   UNL     1      97.752 105.878  92.237  0.00  0.00    +0.000 A 
ATOM      3  C   UNL     1      97.040 105.934  91.032  0.00  0.00    +0.000 A 
ATOM      4  C   UNL     1      95.927 106.779  90.929  0.00  0.00    +0.000 A 
ATOM      5  C   UNL     1      95.519 107.508  92.058  0.00  0.00    +0.000 A 
ATOM      6  C   UNL     1      96.191 107.405  93.282  0.00  0.00    +0.000 A 
ENDROOT
BRANCH   3   7
ATOM      7  O   UNL     1      97.348 105.207  89.910  0.00  0.00    +0.000 OA
ATOM      8  C   UNL     1      98.437 105.657  89.118  0.00  0.00    +0.000 C 
ENDBRANCH   3   7
BRANCH   4   9
ATOM      9  C   UNL     1      95.130 106.925  89.652  0.00  0.00    +0.000 C 
ATOM     10  C   UNL     1      94.147 105.783  89.440  0.00  0.00    +0.000 C 
ENDBRANCH   4   9
BRANCH   6  11
ATOM     11  O   UNL     1      95.782 108.063  94.415  0.00  0.00    +0.000 OA
ATOM     12  C   UNL     1      95.211 109.352  94.200  0.00  0.00    +0.000 C 
ENDBRANCH   6  11
BRANCH   1  13
ATOM     13  C   UNL     1      98.143 106.469  94.653  0.00  0.00    +0.000 C 
BRANCH  13  14
ATOM     14  C   UNL     1      97.688 105.291  95.524  0.00  0.00    +0.000 C 
BRANCH  14  15
ATOM     15  N   UNL     1      96.332 105.507  96.037  0.00  0.00    +0.000 NA
ATOM     16  H   UNL     1      95.659 105.358  95.286  0.00  0.00    +0.000 HD
ATOM     17  H   UNL     1      96.225 106.479  96.323  0.00  0.00    +0.000 HD
ENDBRANCH  14  15
ENDBRANCH  13  14
ENDBRANCH   1  13
TORSDOF 6
ENDMDL
MODEL 7
REMARK VINA RESULT:    -5.110      5.592      7.654
REMARK INTER + INTRA:          -7.247
REMARK INTER:                  -6.937
REMARK INTRA:                  -0.310
REMARK UNBOUND:                -0.494
REMARK  Name = 
REMARK  9 active torsions:
REMARK  status: ('A' for Active; 'I' for Inactive)
REMARK    1  A    between atoms: N_1  and  C_2
REMARK    2  A    between atoms: C_2  and  C_3
REMARK    3  A    between atoms: C_3  and  C_4
REMARK    4  A    between atoms: C_6  and  O_7
REMARK    5  A    between atoms: O_7  and  C_8
REMARK    6  A    between atoms: C_9  and  C_10
REMARK    7  A    between atoms: C_10  and  C_11
REMARK    8  A    between atoms: C_13  and  O_14
REMARK    9  A    between atoms: O_14  and  C_15
REMARK                            x       y       z     vdW  Elec       q    Type
REMARK                         _______ _______ _______ _____ _____    ______ ____
ROOT
ATOM      1  C   UNL     1      98.830 103.842  97.526  0.00  0.00    +0.000 A 
ATOM      2  C   UNL     1      98.740 105.246  97.428  0.00  0.00    +0.000 A 
ATOM      3  C   UNL     1      99.459 106.088  98.287  0.00  0.00    +0.000 A 
ATOM      4  C   UNL     1     100.336 105.526  99.226  0.00  0.00    +0.000 A 
ATOM      5  C   UNL     1     100.428 104.128  99.321  0.00  0.00    +0.000 A 
ATOM      6  C   UNL     1      99.663 103.284  98.506  0.00  0.00    +0.000 A 
ENDROOT
BRANCH   3   7
ATOM      7  O   UNL     1      99.373 107.456  98.289  0.00  0.00    +0.000 OA
ATOM      8  C   UNL     1      99.827 108.141  97.130  0.00  0.00    +0.000 C 
ENDBRANCH   3   7
BRANCH   4   9
ATOM      9  C   UNL     1     101.175 106.368 100.161  0.00  0.00    +0.000 C 
ATOM     10  C   UNL     1     100.959 106.012 101.625  0.00  0.00    +0.000 C 
ENDBRANCH   4   9
BRANCH   6  11
ATOM     11  O   UNL     1      99.693 101.916  98.614  0.00  0.00    +0.000 OA
ATOM     12  C   UNL     1      99.816 101.411  99.942  0.00  0.00    +0.000 C 
ENDBRANCH   6  11
BRANCH   1  13
ATOM     13  C   UNL     1      97.996 102.994  96.583  0.00  0.00    +0.000 C 
BRANCH  13  14
ATOM     14  C   UNL     1      98.700 102.713  95.249  0.00  0.00    +0.000 C 
BRANCH  14  15
ATOM     15  N   UNL     1      98.381 101.368  94.757  0.00  0.00    +0.000 NA
ATOM     16  H   UNL     1      97.719 101.439  93.985  0.00  0.00    +0.000 HD
ATOM     17  H   UNL     1      97.906 100.841  95.489  0.00  0.00    +0.000 HD
ENDBRANCH  14  15
ENDBRANCH  13  14
ENDBRANCH   1  13
TORSDOF 6
ENDMDL
MODEL 8
REMARK VINA RESULT:    -5.042      1.542      3.180
REMARK INTER + INTRA:          -7.158
REMARK INTER:                  -6.681
REMARK INTRA:                  -0.477
REMARK UNBOUND:                -0.494
REMARK  Name = 
REMARK  9 active torsions:
REMARK  status: ('A' for Active; 'I' for Inactive)
REMARK    1  A    between atoms: N_1  and  C_2
REMARK    2  A    between atoms: C_2  and  C_3
REMARK    3  A    between atoms: C_3  and  C_4
REMARK    4  A    between atoms: C_6  and  O_7
REMARK    5  A    between atoms: O_7  and  C_8
REMARK    6  A    between atoms: C_9  and  C_10
REMARK    7  A    between atoms: C_10  and  C_11
REMARK    8  A    between atoms: C_13  and  O_14
REMARK    9  A    between atoms: O_14  and  C_15
REMARK                            x       y       z     vdW  Elec       q    Type
REMARK                         _______ _______ _______ _____ _____    ______ ____
ROOT
ATOM      1  C   UNL     1      97.353 107.540  91.363  0.00  0.00    +0.000 A 
ATOM      2  C   UNL     1      97.174 108.314  92.527  0.00  0.00    +0.000 A 
ATOM      3  C   UNL     1      97.229 107.742  93.805  0.00  0.00    +0.000 A 
ATOM      4  C   UNL     1      97.530 106.378  93.935  0.00  0.00    +0.000 A 
ATOM      5  C   UNL     1      97.712 105.608  92.775  0.00  0.00    +0.000 A 
ATOM      6  C   UNL     1      97.596 106.165  91.496  0.00  0.00    +0.000 A 
ENDROOT
BRANCH   3   7
ATOM      7  O   UNL     1      97.004 108.421  94.974  0.00  0.00    +0.000 OA
ATOM      8  C   UNL     1      95.708 108.967  95.173  0.00  0.00    +0.000 C 
ENDBRANCH   3   7
BRANCH   4   9
ATOM      9  C   UNL     1      97.646 105.695  95.279  0.00  0.00    +0.000 C 
ATOM     10  C   UNL     1      99.067 105.711  95.824  0.00  0.00    +0.000 C 
ENDBRANCH   4   9
BRANCH   6  11
ATOM     11  O   UNL     1      97.715 105.424  90.347  0.00  0.00    +0.000 OA
ATOM     12  C   UNL     1      96.535 104.738  89.936  0.00  0.00    +0.000 C 
ENDBRANCH   6  11
BRANCH   1  13
ATOM     13  C   UNL     1      97.247 108.224  90.012  0.00  0.00    +0.000 C 
BRANCH  13  14
ATOM     14  C   UNL     1      98.603 108.697  89.471  0.00  0.00    +0.000 C 
BRANCH  14  15
ATOM     15  N   UNL     1      99.358 107.582  88.891  0.00  0.00    +0.000 NA
ATOM     16  H   UNL     1     100.228 107.458  89.408  0.00  0.00    +0.000 HD
ATOM     17  H   UNL     1      99.628 107.813  87.936  0.00  0.00    +0.000 HD
ENDBRANCH  14  15
ENDBRANCH  13  14
ENDBRANCH   1  13
TORSDOF 6
ENDMDL
MODEL 9
REMARK VINA RESULT:    -4.900      3.442      5.685
REMARK INTER + INTRA:          -6.970
REMARK INTER:                  -6.663
REMARK INTRA:                  -0.306
REMARK UNBOUND:                -0.494
REMARK  Name = 
REMARK  9 active torsions:
REMARK  status: ('A' for Active; 'I' for Inactive)
REMARK    1  A    between atoms: N_1  and  C_2
REMARK    2  A    between atoms: C_2  and  C_3
REMARK    3  A    between atoms: C_3  and  C_4
REMARK    4  A    between atoms: C_6  and  O_7
REMARK    5  A    between atoms: O_7  and  C_8
REMARK    6  A    between atoms: C_9  and  C_10
REMARK    7  A    between atoms: C_10  and  C_11
REMARK    8  A    between atoms: C_13  and  O_14
REMARK    9  A    between atoms: O_14  and  C_15
REMARK                            x       y       z     vdW  Elec       q    Type
REMARK                         _______ _______ _______ _____ _____    ______ ____
ROOT
ATOM      1  C   UNL     1      98.239 105.742  95.043  0.00  0.00    +0.000 A 
ATOM      2  C   UNL     1      98.026 104.383  94.738  0.00  0.00    +0.000 A 
ATOM      3  C   UNL     1      98.337 103.368  95.652  0.00  0.00    +0.000 A 
ATOM      4  C   UNL     1      98.814 103.711  96.925  0.00  0.00    +0.000 A 
ATOM      5  C   UNL     1      99.022 105.066  97.231  0.00  0.00    +0.000 A 
ATOM      6  C   UNL     1      98.772 106.078  96.297  0.00  0.00    +0.000 A 
ENDROOT
BRANCH   3   7
ATOM      7  O   UNL     1      98.214 102.026  95.399  0.00  0.00    +0.000 OA
ATOM      8  C   UNL     1      98.638 101.560  94.126  0.00  0.00    +0.000 C 
ENDBRANCH   3   7
BRANCH   4   9
ATOM      9  C   UNL     1      99.134 102.678  97.981  0.00  0.00    +0.000 C 
ATOM     10  C   UNL     1     100.269 103.108  98.899  0.00  0.00    +0.000 C 
ENDBRANCH   4   9
BRANCH   6  11
ATOM     11  O   UNL     1      99.017 107.404  96.550  0.00  0.00    +0.000 OA
ATOM     12  C   UNL     1     100.342 107.709  96.979  0.00  0.00    +0.000 C 
ENDBRANCH   6  11
BRANCH   1  13
ATOM     13  C   UNL     1      97.909 106.784  93.989  0.00  0.00    +0.000 C 
BRANCH  13  14
ATOM     14  C   UNL     1      96.522 107.411  94.180  0.00  0.00    +0.000 C 
BRANCH  14  15
ATOM     15  N   UNL     1      95.538 106.801  93.280  0.00  0.00    +0.000 NA
ATOM     16  H   UNL     1      94.932 107.528  92.899  0.00  0.00    +0.000 HD
ATOM     17  H   UNL     1      94.931 106.177  93.810  0.00  0.00    +0.000 HD
ENDBRANCH  14  15
ENDBRANCH  13  14
ENDBRANCH   1  13
TORSDOF 6
ENDMDL
