MODEL 1
REMARK VINA RESULT:    -5.372      0.000      0.000
REMARK INTER + INTRA:          -7.748
REMARK INTER:                  -7.414
REMARK INTRA:                  -0.334
REMARK UNBOUND:                -0.334
REMARK  Name = 
REMARK  10 active torsions:
REMARK  status: ('A' for Active; 'I' for Inactive)
REMARK    1  A    between atoms: N_1  and  C_2
REMARK    2  A    between atoms: C_2  and  C_3
REMARK    3  A    between atoms: C_3  and  C_4
REMARK    4  A    between atoms: C_6  and  O_7
REMARK    5  A    between atoms: O_7  and  C_8
REMARK    6  A    between atoms: C_9  and  S_10
REMARK    7  A    between atoms: S_10  and  C_11
REMARK    8  A    between atoms: C_11  and  C_12
REMARK    9  A    between atoms: C_14  and  O_15
REMARK   10  A    between atoms: O_15  and  C_16
REMARK                            x       y       z     vdW  Elec       q    Type
REMARK                         _______ _______ _______ _____ _____    ______ ____
ROOT
ATOM      1  C   UNL     1      98.741 103.772  97.378  0.00  0.00    +0.000 A 
ATOM      2  C   UNL     1      98.634 105.188  97.345  0.00  0.00    +0.000 A 
ATOM      3  C   UNL     1      99.280 106.022  98.266  0.00  0.00    +0.000 A 
ATOM      4  C   UNL     1     100.061 105.442  99.267  0.00  0.00    +0.000 A 
ATOM      5  C   UNL     1     100.183 104.045  99.304  0.00  0.00    +0.000 A 
ATOM      6  C   UNL     1      99.542 103.199  98.378  0.00  0.00    +0.000 A 
ENDROOT
BRANCH   3   7
ATOM      7  O   UNL     1      99.144 107.389  98.275  0.00  0.00    +0.000 OA
ATOM      8  C   UNL     1      97.876 107.916  98.644  0.00  0.00    +0.000 C 
ENDBRANCH   3   7
BRANCH   6   9
ATOM      9  O   UNL     1      99.742 101.889  98.693  0.00  0.00    +0.000 OA
ATOM     10  C   UNL     1      99.834 101.429 100.029  0.00  0.00    +0.000 C 
ENDBRANCH   6   9
BRANCH   1  11
ATOM     11  C   UNL     1      97.949 103.029  96.319  0.00  0.00    +0.000 C 
BRANCH  11  12
ATOM     12  C   UNL     1      98.746 102.628  95.075  0.00  0.00    +0.000 C 
BRANCH  12  13
ATOM     13  N   UNL     1      98.376 101.277  94.650  0.00  0.00    +0.000 NA
ATOM     14  H   UNL     1      98.549 101.179  93.649  0.00  0.00    +0.000 HD
ATOM     15  H   UNL     1      97.375 101.132  94.777  0.00  0.00    +0.000 HD
ENDBRANCH  12  13
ENDBRANCH  11  12
ENDBRANCH   1  11
BRANCH   4  16
ATOM     16  S   UNL     1     100.995 106.383 100.477  0.00  0.00    +0.000 S 
BRANCH  16  17
ATOM     17  C   UNL     1     101.060 105.185 101.851  0.00  0.00    +0.000 C 
ATOM     18  C   UNL     1     100.984 105.923 103.179  0.00  0.00    +0.000 C 
ENDBRANCH  16  17
ENDBRANCH   4  16
TORSDOF 7
ENDMDL
MODEL 2
REMARK VINA RESULT:    -5.214      5.758      7.174
REMARK INTER + INTRA:          -7.530
REMARK INTER:                  -6.930
REMARK INTRA:                  -0.600
REMARK UNBOUND:                -0.334
REMARK  Name = 
REMARK  10 active torsions:
REMARK  status: ('A' for Active; 'I' for Inactive)
REMARK    1  A    between atoms: N_1  and  C_2
REMARK    2  A    between atoms: C_2  and  C_3
REMARK    3  A    between atoms: C_3  and  C_4
REMARK    4  A    between atoms: C_6  and  O_7
REMARK    5  A    between atoms: O_7  and  C_8
REMARK    6  A    between atoms: C_9  and  S_10
REMARK    7  A    between atoms: S_10  and  C_11
REMARK    8  A    between atoms: C_11  and  C_12
REMARK    9  A    between atoms: C_14  and  O_15
REMARK   10  A    between atoms: O_15  and  C_16
REMARK                            x       y       z     vdW  Elec       q    Type
REMARK                         _______ _______ _______ _____ _____    ______ ____
ROOT
ATOM      1  C   UNL     1      97.338 107.761  91.520  0.00  0.00    +0.000 A 
ATOM      2  C   UNL     1      97.068 108.621  92.618  0.00  0.00    +0.000 A 
ATOM      3  C   UNL     1      97.041 108.176  93.946  0.00  0.00    +0.000 A 
ATOM      4  C   UNL     1      97.285 106.827  94.208  0.00  0.00    +0.000 A 
ATOM      5  C   UNL     1      97.563 105.969  93.134  0.00  0.00    +0.000 A 
ATOM      6  C   UNL     1      97.598 106.410  91.796  0.00  0.00    +0.000 A 
ENDROOT
BRANCH   3   7
ATOM      7  O   UNL     1      96.733 108.988  95.011  0.00  0.00    +0.000 OA
ATOM      8  C   UNL     1      95.389 109.438  95.119  0.00  0.00    +0.000 C 
ENDBRANCH   3   7
BRANCH   6   9
ATOM      9  O   UNL     1      97.790 105.366  90.943  0.00  0.00    +0.000 OA
ATOM     10  C   UNL     1      96.744 104.810  90.167  0.00  0.00    +0.000 C 
ENDBRANCH   6   9
BRANCH   1  11
ATOM     11  C   UNL     1      97.296 108.411  90.151  0.00  0.00    +0.000 C 
BRANCH  11  12
ATOM     12  C   UNL     1      98.663 108.679  89.518  0.00  0.00    +0.000 C 
BRANCH  12  13
ATOM     13  N   UNL     1      99.233 107.435  88.997  0.00  0.00    +0.000 NA
ATOM     14  H   UNL     1      98.572 106.672  89.148  0.00  0.00    +0.000 HD
ATOM     15  H   UNL     1     100.071 107.187  89.523  0.00  0.00    +0.000 HD
ENDBRANCH  12  13
ENDBRANCH  11  12
ENDBRANCH   1  11
BRANCH   4  16
ATOM     16  S   UNL     1      97.345 106.125  95.860  0.00  0.00    +0.000 S 
BRANCH  16  17
ATOM     17  C   UNL     1      99.071 105.537  95.907  0.00  0.00    +0.000 C 
ATOM     18  C   UNL     1     100.008 106.716  96.123  0.00  0.00    +0.000 C 
ENDBRANCH  16  17
ENDBRANCH   4  16
TORSDOF 7
ENDMDL
MODEL 3
REMARK VINA RESULT:    -5.208      3.211      5.342
REMARK INTER + INTRA:          -7.522
REMARK INTER:                  -7.187
REMARK INTRA:                  -0.334
REMARK UNBOUND:                -0.334
REMARK  Name = 
REMARK  10 active torsions:
REMARK  status: ('A' for Active; 'I' for Inactive)
REMARK    1  A    between atoms: N_1  and  C_2
REMARK    2  A    between atoms: C_2  and  C_3
REMARK    3  A    between atoms: C_3  and  C_4
REMARK    4  A    between atoms: C_6  and  O_7
REMARK    5  A    between atoms: O_7  and  C_8
REMARK    6  A    between atoms: C_9  and  S_10
REMARK    7  A    between atoms: S_10  and  C_11
REMARK    8  A    between atoms: C_11  and  C_12
REMARK    9  A    between atoms: C_14  and  O_15
REMARK   10  A    between atoms: O_15  and  C_16
REMARK                            x       y       z     vdW  Elec       q    Type
REMARK                         _______ _______ _______ _____ _____    ______ ____
ROOT
ATOM      1  C   UNL     1      99.733 103.919  96.921  0.00  0.00    +0.000 A 
ATOM      2  C   UNL     1      99.816 105.334  97.019  0.00  0.00    +0.000 A 
ATOM      3  C   UNL     1      99.071 106.198  96.206  0.00  0.00    +0.000 A 
ATOM      4  C   UNL     1      98.213 105.651  95.251  0.00  0.00    +0.000 A 
ATOM      5  C   UNL     1      98.114 104.255  95.151  0.00  0.00    +0.000 A 
ATOM      6  C   UNL     1      98.855 103.379  95.969  0.00  0.00    +0.000 A 
ENDROOT
BRANCH   3   7
ATOM      7  O   UNL     1      99.179 107.567  96.258  0.00  0.00    +0.000 OA
ATOM      8  C   UNL     1      98.706 108.214  97.431  0.00  0.00    +0.000 C 
ENDBRANCH   3   7
BRANCH   6   9
ATOM      9  O   UNL     1      98.652 102.083  95.605  0.00  0.00    +0.000 OA
ATOM     10  C   UNL     1      98.611 101.666  94.252  0.00  0.00    +0.000 C 
ENDBRANCH   6   9
BRANCH   1  11
ATOM     11  C   UNL     1     100.634 103.143  97.862  0.00  0.00    +0.000 C 
BRANCH  11  12
ATOM     12  C   UNL     1      99.955 102.631  99.135  0.00  0.00    +0.000 C 
BRANCH  12  13
ATOM     13  N   UNL     1     100.099 101.178  99.237  0.00  0.00    +0.000 NA
ATOM     14  H   UNL     1      99.222 100.774  99.570  0.00  0.00    +0.000 HD
ATOM     15  H   UNL     1     100.799 100.945  99.942  0.00  0.00    +0.000 HD
ENDBRANCH  12  13
ENDBRANCH  11  12
ENDBRANCH   1  11
BRANCH   4  16
ATOM     16  S   UNL     1      97.152 106.630  94.183  0.00  0.00    +0.000 S 
BRANCH  16  17
ATOM     17  C   UNL     1      97.599 105.943  92.553  0.00  0.00    +0.000 C 
ATOM     18  C   UNL     1      97.916 107.075  91.588  0.00  0.00    +0.000 C 
ENDBRANCH  16  17
ENDBRANCH   4  16
TORSDOF 7
ENDMDL
MODEL 4
REMARK VINA RESULT:    -5.186      6.466      8.815
REMARK INTER + INTRA:          -7.491
REMARK INTER:                  -7.126
REMARK INTRA:                  -0.365
REMARK UNBOUND:                -0.334
REMARK  Name = 
REMARK  10 active torsions:
REMARK  status: ('A' for Active; 'I' for Inactive)
REMARK    1  A    between atoms: N_1  and  C_2
REMARK    2  A    between atoms: C_2  and  C_3
REMARK    3  A    between atoms: C_3  and  C_4
REMARK    4  A    between atoms: C_6  and  O_7
REMARK    5  A    between atoms: O_7  and  C_8
REMARK    6  A    between atoms: C_9  and  S_10
REMARK    7  A    between atoms: S_10  and  C_11
REMARK    8  A    between atoms: C_11  and  C_12
REMARK    9  A    between atoms: C_14  and  O_15
REMARK   10  A    between atoms: O_15  and  C_16
REMARK                            x       y       z     vdW  Elec       q    Type
REMARK                         _______ _______ _______ _____ _____    ______ ____
ROOT
ATOM      1  C   UNL     1      97.161 108.180  93.700  0.00  0.00    +0.000 A 
ATOM      2  C   UNL     1      97.100 108.644  92.359  0.00  0.00    +0.000 A 
ATOM      3  C   UNL     1      97.287 107.805  91.253  0.00  0.00    +0.000 A 
ATOM      4  C   UNL     1      97.551 106.451  91.473  0.00  0.00    +0.000 A 
ATOM      5  C   UNL     1      97.603 105.979  92.792  0.00  0.00    +0.000 A 
ATOM      6  C   UNL     1      97.410 106.815  93.909  0.00  0.00    +0.000 A 
ENDROOT
BRANCH   3   7
ATOM      7  O   UNL     1      97.280 108.250  89.953  0.00  0.00    +0.000 OA
ATOM      8  C   UNL     1      98.497 108.771  89.436  0.00  0.00    +0.000 C 
ENDBRANCH   3   7
BRANCH   6   9
ATOM      9  O   UNL     1      97.610 106.133  95.071  0.00  0.00    +0.000 OA
ATOM     10  C   UNL     1      96.577 105.419  95.725  0.00  0.00    +0.000 C 
ENDBRANCH   6   9
BRANCH   1  11
ATOM     11  C   UNL     1      96.964 109.237  94.769  0.00  0.00    +0.000 C 
BRANCH  11  12
ATOM     12  C   UNL     1      95.614 109.186  95.490  0.00  0.00    +0.000 C 
BRANCH  12  13
ATOM     13  N   UNL     1      94.581 109.830  94.677  0.00  0.00    +0.000 NA
ATOM     14  H   UNL     1      94.951 110.696  94.283  0.00  0.00    +0.000 HD
ATOM     15  H   UNL     1      93.794 110.104  95.265  0.00  0.00    +0.000 HD
ENDBRANCH  12  13
ENDBRANCH  11  12
ENDBRANCH   1  11
BRANCH   4  16
ATOM     16  S   UNL     1      97.750 105.246  90.157  0.00  0.00    +0.000 S 
BRANCH  16  17
ATOM     17  C   UNL     1      96.026 104.684  89.959  0.00  0.00    +0.000 C 
ATOM     18  C   UNL     1      95.673 104.626  88.480  0.00  0.00    +0.000 C 
ENDBRANCH  16  17
ENDBRANCH   4  16
TORSDOF 7
ENDMDL
MODEL 5
REMARK VINA RESULT:    -5.129      5.743      7.881
REMARK INTER + INTRA:          -7.413
REMARK INTER:                  -7.038
REMARK INTRA:                  -0.374
REMARK UNBOUND:                -0.334
REMARK  Name = 
REMARK  10 active torsions:
REMARK  status: ('A' for Active; 'I' for Inactive)
REMARK    1  A    between atoms: N_1  and  C_2
REMARK    2  A    between atoms: C_2  and  C_3
REMARK    3  A    between atoms: C_3  and  C_4
REMARK    4  A    between atoms: C_6  and  O_7
REMARK    5  A    between atoms: O_7  and  C_8
REMARK    6  A    between atoms: C_9  and  S_10
REMARK    7  A    between atoms: S_10  and  C_11
REMARK    8  A    between atoms: C_11  and  C_12
REMARK    9  A    between atoms: C_14  and  O_15
REMARK   10  A    between atoms: O_15  and  C_16
REMARK                            x       y       z     vdW  Elec       q    Type
REMARK                         _______ _______ _______ _____ _____    ______ ____
ROOT
ATOM      1  C   UNL     1      97.534 106.309  91.481  0.00  0.00    +0.000 A 
ATOM      2  C   UNL     1      97.563 105.622  92.724  0.00  0.00    +0.000 A 
ATOM      3  C   UNL     1      97.247 106.237  93.942  0.00  0.00    +0.000 A 
ATOM      4  C   UNL     1      96.891 107.587  93.942  0.00  0.00    +0.000 A 
ATOM      5  C   UNL     1      96.848 108.274  92.720  0.00  0.00    +0.000 A 
ATOM      6  C   UNL     1      97.159 107.662  91.490  0.00  0.00    +0.000 A 
ENDROOT
BRANCH   3   7
ATOM      7  O   UNL     1      97.320 105.597  95.156  0.00  0.00    +0.000 OA
ATOM      8  C   UNL     1      98.615 105.305  95.662  0.00  0.00    +0.000 C 
ENDBRANCH   3   7
BRANCH   6   9
ATOM      9  O   UNL     1      97.137 108.568  90.473  0.00  0.00    +0.000 OA
ATOM     10  C   UNL     1      98.313 109.023  89.830  0.00  0.00    +0.000 C 
ENDBRANCH   6   9
BRANCH   1  11
ATOM     11  C   UNL     1      97.935 105.491  90.270  0.00  0.00    +0.000 C 
BRANCH  11  12
ATOM     12  C   UNL     1      96.827 105.275  89.237  0.00  0.00    +0.000 C 
BRANCH  12  13
ATOM     13  N   UNL     1      95.721 104.520  89.829  0.00  0.00    +0.000 NA
ATOM     14  H   UNL     1      95.379 105.015  90.654  0.00  0.00    +0.000 HD
ATOM     15  H   UNL     1      96.055 103.616  90.163  0.00  0.00    +0.000 HD
ENDBRANCH  12  13
ENDBRANCH  11  12
ENDBRANCH   1  11
BRANCH   4  16
ATOM     16  S   UNL     1      96.401 108.492  95.414  0.00  0.00    +0.000 S 
BRANCH  16  17
ATOM     17  C   UNL     1      95.296 109.744  94.680  0.00  0.00    +0.000 C 
ATOM     18  C   UNL     1      94.575 110.502  95.784  0.00  0.00    +0.000 C 
ENDBRANCH  16  17
ENDBRANCH   4  16
TORSDOF 7
ENDMDL
MODEL 6
REMARK VINA RESULT:    -5.056      2.811      4.719
REMARK INTER + INTRA:          -7.312
REMARK INTER:                  -6.939
REMARK INTRA:                  -0.373
REMARK UNBOUND:                -0.334
REMARK  Name = 
REMARK  10 active torsions:
REMARK  status: ('A' for Active; 'I' for Inactive)
REMARK    1  A    between atoms: N_1  and  C_2
REMARK    2  A    between atoms: C_2  and  C_3
REMARK    3  A    between atoms: C_3  and  C_4
REMARK    4  A    between atoms: C_6  and  O_7
REMARK    5  A    between atoms: O_7  and  C_8
REMARK    6  A    between atoms: C_9  and  S_10
REMARK    7  A    between atoms: S_10  and  C_11
REMARK    8  A    between atoms: C_11  and  C_12
REMARK    9  A    between atoms: C_14  and  O_15
REMARK   10  A    between atoms: O_15  and  C_16
REMARK                            x       y       z     vdW  Elec       q    Type
REMARK                         _______ _______ _______ _____ _____    ______ ____
ROOT
ATOM      1  C   UNL     1      98.395 105.709  95.199  0.00  0.00    +0.000 A 
ATOM      2  C   UNL     1      98.246 104.314  94.976  0.00  0.00    +0.000 A 
ATOM      3  C   UNL     1      98.644 103.347  95.908  0.00  0.00    +0.000 A 
ATOM      4  C   UNL     1      99.218 103.767  97.110  0.00  0.00    +0.000 A 
ATOM      5  C   UNL     1      99.359 105.141  97.347  0.00  0.00    +0.000 A 
ATOM      6  C   UNL     1      98.957 106.120  96.418  0.00  0.00    +0.000 A 
ENDROOT
BRANCH   3   7
ATOM      7  O   UNL     1      98.552 101.995  95.683  0.00  0.00    +0.000 OA
ATOM      8  C   UNL     1      98.590 101.555  94.332  0.00  0.00    +0.000 C 
ENDBRANCH   3   7
BRANCH   6   9
ATOM      9  O   UNL     1      99.294 107.369  96.845  0.00  0.00    +0.000 OA
ATOM     10  C   UNL     1     100.545 107.660  97.442  0.00  0.00    +0.000 C 
ENDBRANCH   6   9
BRANCH   1  11
ATOM     11  C   UNL     1      97.936 106.607  94.067  0.00  0.00    +0.000 C 
BRANCH  11  12
ATOM     12  C   UNL     1      96.614 107.338  94.314  0.00  0.00    +0.000 C 
BRANCH  12  13
ATOM     13  N   UNL     1      95.593 106.872  93.375  0.00  0.00    +0.000 NA
ATOM     14  H   UNL     1      95.709 105.870  93.220  0.00  0.00    +0.000 HD
ATOM     15  H   UNL     1      95.728 107.312  92.465  0.00  0.00    +0.000 HD
ENDBRANCH  12  13
ENDBRANCH  11  12
ENDBRANCH   1  11
BRANCH   4  16
ATOM     16  S   UNL     1      99.717 102.648  98.423  0.00  0.00    +0.000 S 
BRANCH  16  17
ATOM     17  C   UNL     1     100.131 103.843  99.736  0.00  0.00    +0.000 C 
ATOM     18  C   UNL     1      99.371 103.493 101.006  0.00  0.00    +0.000 C 
ENDBRANCH  16  17
ENDBRANCH   4  16
TORSDOF 7
ENDMDL
MODEL 7
REMARK VINA RESULT:    -5.023      4.020      6.221
REMARK INTER + INTRA:          -7.267
REMARK INTER:                  -6.726
REMARK INTRA:                  -0.540
REMARK UNBOUND:                -0.334
REMARK  Name = 
REMARK  10 active torsions:
REMARK  status: ('A' for Active; 'I' for Inactive)
REMARK    1  A    between atoms: N_1  and  C_2
REMARK    2  A    between atoms: C_2  and  C_3
REMARK    3  A    between atoms: C_3  and  C_4
REMARK    4  A    between atoms: C_6  and  O_7
REMARK    5  A    between atoms: O_7  and  C_8
REMARK    6  A    between atoms: C_9  and  S_10
REMARK    7  A    between atoms: S_10  and  C_11
REMARK    8  A    between atoms: C_11  and  C_12
REMARK    9  A    between atoms: C_14  and  O_15
REMARK   10  A    between atoms: O_15  and  C_16
REMARK                            x       y       z     vdW  Elec       q    Type
REMARK                         _______ _______ _______ _____ _____    ______ ____
ROOT
ATOM      1  C   UNL     1      97.427 107.875  94.757  0.00  0.00    +0.000 A 
ATOM      2  C   UNL     1      98.129 107.896  95.992  0.00  0.00    +0.000 A 
ATOM      3  C   UNL     1      98.724 106.756  96.549  0.00  0.00    +0.000 A 
ATOM      4  C   UNL     1      98.621 105.542  95.868  0.00  0.00    +0.000 A 
ATOM      5  C   UNL     1      97.940 105.511  94.642  0.00  0.00    +0.000 A 
ATOM      6  C   UNL     1      97.344 106.653  94.072  0.00  0.00    +0.000 A 
ENDROOT
BRANCH   3   7
ATOM      7  O   UNL     1      99.362 106.753  97.766  0.00  0.00    +0.000 OA
ATOM      8  C   UNL     1      98.621 107.203  98.892  0.00  0.00    +0.000 C 
ENDBRANCH   3   7
BRANCH   6   9
ATOM      9  O   UNL     1      96.665 106.334  92.936  0.00  0.00    +0.000 OA
ATOM     10  C   UNL     1      97.241 106.435  91.646  0.00  0.00    +0.000 C 
ENDBRANCH   6   9
BRANCH   1  11
ATOM     11  C   UNL     1      96.823 109.196  94.324  0.00  0.00    +0.000 C 
BRANCH  11  12
ATOM     12  C   UNL     1      95.307 109.306  94.503  0.00  0.00    +0.000 C 
BRANCH  12  13
ATOM     13  N   UNL     1      94.616 108.627  93.406  0.00  0.00    +0.000 NA
ATOM     14  H   UNL     1      93.616 108.589  93.609  0.00  0.00    +0.000 HD
ATOM     15  H   UNL     1      94.926 107.657  93.345  0.00  0.00    +0.000 HD
ENDBRANCH  12  13
ENDBRANCH  11  12
ENDBRANCH   1  11
BRANCH   4  16
ATOM     16  S   UNL     1      99.384 104.016  96.426  0.00  0.00    +0.000 S 
BRANCH  16  17
ATOM     17  C   UNL     1      98.127 102.805  95.898  0.00  0.00    +0.000 C 
ATOM     18  C   UNL     1      98.650 102.005  94.714  0.00  0.00    +0.000 C 
ENDBRANCH  16  17
ENDBRANCH   4  16
TORSDOF 7
ENDMDL
MODEL 8
REMARK VINA RESULT:    -4.969      2.666      3.399
REMARK INTER + INTRA:          -7.192
REMARK INTER:                  -6.921
REMARK INTRA:                  -0.271
REMARK UNBOUND:                -0.334
REMARK  Name = 
REMARK  10 active torsions:
REMARK  status: ('A' for Active; 'I' for Inactive)
REMARK    1  A    between atoms: N_1  and  C_2
REMARK    2  A    between atoms: C_2  and  C_3
REMARK    3  A    between atoms: C_3  and  C_4
REMARK    4  A    between atoms: C_6  and  O_7
REMARK    5  A    between atoms: O_7  and  C_8
REMARK    6  A    between atoms: C_9  and  S_10
REMARK    7  A    between atoms: S_10  and  C_11
REMARK    8  A    between atoms: C_11  and  C_12
REMARK    9  A    between atoms: C_14  and  O_15
REMARK   10  A    between atoms: O_15  and  C_16
REMARK                            x       y       z     vdW  Elec       q    Type
REMARK                         _______ _______ _______ _____ _____    ______ ____
ROOT
ATOM      1  C   UNL     1      98.346 104.719  95.717  0.00  0.00    +0.000 A 
ATOM      2  C   UNL     1      98.770 105.761  96.583  0.00  0.00    +0.000 A 
ATOM      3  C   UNL     1      99.329 105.522  97.846  0.00  0.00    +0.000 A 
ATOM      4  C   UNL     1      99.471 104.202  98.279  0.00  0.00    +0.000 A 
ATOM      5  C   UNL     1      99.065 103.164  97.428  0.00  0.00    +0.000 A 
ATOM      6  C   UNL     1      98.509 103.396  96.155  0.00  0.00    +0.000 A 
ENDROOT
BRANCH   3   7
ATOM      7  O   UNL     1      99.697 106.521  98.713  0.00  0.00    +0.000 OA
ATOM      8  C   UNL     1     100.478 107.586  98.186  0.00  0.00    +0.000 C 
ENDBRANCH   3   7
BRANCH   6   9
ATOM      9  O   UNL     1      98.109 102.229  95.576  0.00  0.00    +0.000 OA
ATOM     10  C   UNL     1      98.655 101.753  94.360  0.00  0.00    +0.000 C 
ENDBRANCH   6   9
BRANCH   1  11
ATOM     11  C   UNL     1      97.738 105.167  94.401  0.00  0.00    +0.000 C 
BRANCH  11  12
ATOM     12  C   UNL     1      97.184 106.594  94.396  0.00  0.00    +0.000 C 
BRANCH  12  13
ATOM     13  N   UNL     1      95.895 106.635  93.703  0.00  0.00    +0.000 NA
ATOM     14  H   UNL     1      95.697 107.594  93.416  0.00  0.00    +0.000 HD
ATOM     15  H   UNL     1      95.146 106.374  94.344  0.00  0.00    +0.000 HD
ENDBRANCH  12  13
ENDBRANCH  11  12
ENDBRANCH   1  11
BRANCH   4  16
ATOM     16  S   UNL     1     100.224 103.740  99.842  0.00  0.00    +0.000 S 
BRANCH  16  17
ATOM     17  C   UNL     1      99.755 101.979  99.927  0.00  0.00    +0.000 C 
ATOM     18  C   UNL     1      99.373 101.619 101.355  0.00  0.00    +0.000 C 
ENDBRANCH  16  17
ENDBRANCH   4  16
TORSDOF 7
ENDMDL
MODEL 9
REMARK VINA RESULT:    -4.824      4.729      5.956
REMARK INTER + INTRA:          -6.992
REMARK INTER:                  -6.346
REMARK INTRA:                  -0.646
REMARK UNBOUND:                -0.334
REMARK  Name = 
REMARK  10 active torsions:
REMARK  status: ('A' for Active; 'I' for Inactive)
REMARK    1  A    between atoms: N_1  and  C_2
REMARK    2  A    between atoms: C_2  and  C_3
REMARK    3  A    between atoms: C_3  and  C_4
REMARK    4  A    between atoms: C_6  and  O_7
REMARK    5  A    between atoms: O_7  and  C_8
REMARK    6  A    between atoms: C_9  and  S_10
REMARK    7  A    between atoms: S_10  and  C_11
REMARK    8  A    between atoms: C_11  and  C_12
REMARK    9  A    between atoms: C_14  and  O_15
REMARK   10  A    between atoms: O_15  and  C_16
REMARK                            x       y       z     vdW  Elec       q    Type
REMARK                         _______ _______ _______ _____ _____    ______ ____
ROOT
ATOM      1  C   UNL     1      97.419 107.491  93.291  0.00  0.00    +0.000 A 
ATOM      2  C   UNL     1      96.998 108.785  93.698  0.00  0.00    +0.000 A 
ATOM      3  C   UNL     1      96.763 109.124  95.037  0.00  0.00    +0.000 A 
ATOM      4  C   UNL     1      96.945 108.148  96.019  0.00  0.00    +0.000 A 
ATOM      5  C   UNL     1      97.371 106.869  95.631  0.00  0.00    +0.000 A 
ATOM      6  C   UNL     1      97.614 106.523  94.288  0.00  0.00    +0.000 A 
ENDROOT
BRANCH   3   7
ATOM      7  O   UNL     1      96.309 110.356  95.438  0.00  0.00    +0.000 OA
ATOM      8  C   UNL     1      94.977 110.707  95.085  0.00  0.00    +0.000 C 
ENDBRANCH   3   7
BRANCH   6   9
ATOM      9  O   UNL     1      97.919 105.200  94.172  0.00  0.00    +0.000 OA
ATOM     10  C   UNL     1      98.226 104.386  95.289  0.00  0.00    +0.000 C 
ENDBRANCH   6   9
BRANCH   1  11
ATOM     11  C   UNL     1      97.594 107.298  91.797  0.00  0.00    +0.000 C 
BRANCH  11  12
ATOM     12  C   UNL     1      96.609 106.323  91.149  0.00  0.00    +0.000 C 
BRANCH  12  13
ATOM     13  N   UNL     1      97.189 104.980  91.089  0.00  0.00    +0.000 NA
ATOM     14  H   UNL     1      96.860 104.435  91.887  0.00  0.00    +0.000 HD
ATOM     15  H   UNL     1      98.203 105.033  91.185  0.00  0.00    +0.000 HD
ENDBRANCH  12  13
ENDBRANCH  11  12
ENDBRANCH   1  11
BRANCH   4  16
ATOM     16  S   UNL     1      96.743 108.451  97.778  0.00  0.00    +0.000 S 
BRANCH  16  17
ATOM     17  C   UNL     1      94.957 108.134  97.965  0.00  0.00    +0.000 C 
ATOM     18  C   UNL     1      94.275 109.367  98.541  0.00  0.00    +0.000 C 
ENDBRANCH  16  17
ENDBRANCH   4  16
TORSDOF 7
ENDMDL
