MODEL 1
REMARK VINA RESULT:    -6.953      0.000      0.000
REMARK INTER + INTRA:         -10.652
REMARK INTER:                 -10.001
REMARK INTRA:                  -0.650
REMARK UNBOUND:                -0.650
REMARK  Name = 
REMARK  8 active torsions:
REMARK  status: ('A' for Active; 'I' for Inactive)
REMARK    1  A    between atoms: C_2  and  C_3
REMARK    2  A    between atoms: C_3  and  N_4
REMARK    3  A    between atoms: N_4  and  C_5
REMARK    4  A    between atoms: N_4  and  C_8
REMARK    5  A    between atoms: C_5  and  C_6
REMARK    6  A    between atoms: C_8  and  C_9
REMARK    7  A    between atoms: C_9  and  C_10
REMARK    8  A    between atoms: C_16  and  O_17
REMARK                            x       y       z     vdW  Elec       q    Type
REMARK                         _______ _______ _______ _____ _____    ______ ____
ROOT
ATOM      1  C   UNL     1      96.753 107.649  93.156  0.00  0.00    +0.000 A 
ATOM      2  N   UNL     1      96.851 106.327  92.790  0.00  0.00    +0.000 N 
ATOM      3  C   UNL     1      97.427 106.216  91.543  0.00  0.00    +0.000 A 
ATOM      4  C   UNL     1      97.651 105.091  90.740  0.00  0.00    +0.000 A 
ATOM      5  C   UNL     1      98.222 105.300  89.478  0.00  0.00    +0.000 A 
ATOM      6  C   UNL     1      98.574 106.578  89.045  0.00  0.00    +0.000 A 
ATOM      7  C   UNL     1      98.362 107.685  89.872  0.00  0.00    +0.000 A 
ATOM      8  C   UNL     1      97.773 107.505  91.138  0.00  0.00    +0.000 A 
ATOM      9  C   UNL     1      97.385 108.390  92.180  0.00  0.00    +0.000 A 
ATOM     10  H   UNL     1      96.469 105.559  93.332  0.00  0.00    +0.000 HD
ENDROOT
BRANCH   7  11
ATOM     11  O   UNL     1      98.694 108.946  89.451  0.00  0.00    +0.000 OA
ATOM     12  H   UNL     1      98.994 109.457  90.218  0.00  0.00    +0.000 HD
ENDBRANCH   7  11
BRANCH   1  13
ATOM     13  C   UNL     1      96.049 108.099  94.395  0.00  0.00    +0.000 C 
BRANCH  13  14
ATOM     14  C   UNL     1      95.199 109.376  94.211  0.00  0.00    +0.000 C 
BRANCH  14  15
ATOM     15  N   UNL     1      94.774 110.077  95.461  0.00  0.00    +0.000 NA
BRANCH  15  16
ATOM     16  C   UNL     1      95.324 109.358  96.632  0.00  0.00    +0.000 C 
BRANCH  16  18
ATOM     17  C   UNL     1      94.698 109.924  98.993  0.00  0.00    +0.000 C 
ATOM     18  C   UNL     1      94.413 109.333  97.825  0.00  0.00    +0.000 C 
ENDBRANCH  16  18
ENDBRANCH  15  16
BRANCH  15  19
ATOM     19  C   UNL     1      95.283 111.469  95.443  0.00  0.00    +0.000 C 
BRANCH  19  20
ATOM     20  C   UNL     1      96.786 111.550  95.441  0.00  0.00    +0.000 C 
ATOM     21  C   UNL     1      97.494 112.454  94.750  0.00  0.00    +0.000 C 
ENDBRANCH  19  20
ENDBRANCH  15  19
ENDBRANCH  14  15
ENDBRANCH  13  14
ENDBRANCH   1  13
TORSDOF 8
ENDMDL
MODEL 2
REMARK VINA RESULT:    -6.870      0.751      2.483
REMARK INTER + INTRA:         -10.533
REMARK INTER:                  -9.838
REMARK INTRA:                  -0.695
REMARK UNBOUND:                -0.650
REMARK  Name = 
REMARK  8 active torsions:
REMARK  status: ('A' for Active; 'I' for Inactive)
REMARK    1  A    between atoms: C_2  and  C_3
REMARK    2  A    between atoms: C_3  and  N_4
REMARK    3  A    between atoms: N_4  and  C_5
REMARK    4  A    between atoms: N_4  and  C_8
REMARK    5  A    between atoms: C_5  and  C_6
REMARK    6  A    between atoms: C_8  and  C_9
REMARK    7  A    between atoms: C_9  and  C_10
REMARK    8  A    between atoms: C_16  and  O_17
REMARK                            x       y       z     vdW  Elec       q    Type
REMARK                         _______ _______ _______ _____ _____    ______ ____
ROOT
ATOM      1  C   UNL     1      96.603 107.690  92.982  0.00  0.00    +0.000 A 
ATOM      2  N   UNL     1      96.722 106.366  92.628  0.00  0.00    +0.000 N 
ATOM      3  C   UNL     1      97.367 106.251  91.416  0.00  0.00    +0.000 A 
ATOM      4  C   UNL     1      97.636 105.123  90.632  0.00  0.00    +0.000 A 
ATOM      5  C   UNL     1      98.277 105.326  89.403  0.00  0.00    +0.000 A 
ATOM      6  C   UNL     1      98.651 106.603  88.984  0.00  0.00    +0.000 A 
ATOM      7  C   UNL     1      98.392 107.713  89.793  0.00  0.00    +0.000 A 
ATOM      8  C   UNL     1      97.735 107.538  91.025  0.00  0.00    +0.000 A 
ATOM      9  C   UNL     1      97.288 108.428  92.040  0.00  0.00    +0.000 A 
ATOM     10  H   UNL     1      96.311 105.601  93.152  0.00  0.00    +0.000 HD
ENDROOT
BRANCH   7  11
ATOM     11  O   UNL     1      98.747 108.973  89.385  0.00  0.00    +0.000 OA
ATOM     12  H   UNL     1      97.978 109.385  88.962  0.00  0.00    +0.000 HD
ENDBRANCH   7  11
BRANCH   1  13
ATOM     13  C   UNL     1      95.831 108.145  94.178  0.00  0.00    +0.000 C 
BRANCH  13  14
ATOM     14  C   UNL     1      96.666 108.230  95.475  0.00  0.00    +0.000 C 
BRANCH  14  15
ATOM     15  N   UNL     1      96.381 109.389  96.375  0.00  0.00    +0.000 NA
BRANCH  15  16
ATOM     16  C   UNL     1      97.343 110.475  96.087  0.00  0.00    +0.000 C 
BRANCH  16  18
ATOM     17  C   UNL     1      97.559 112.539  94.679  0.00  0.00    +0.000 C 
ATOM     18  C   UNL     1      96.812 111.546  95.178  0.00  0.00    +0.000 C 
ENDBRANCH  16  18
ENDBRANCH  15  16
BRANCH  15  19
ATOM     19  C   UNL     1      94.998 109.868  96.137  0.00  0.00    +0.000 C 
BRANCH  19  20
ATOM     20  C   UNL     1      94.178 109.957  97.397  0.00  0.00    +0.000 C 
ATOM     21  C   UNL     1      94.324 109.143  98.452  0.00  0.00    +0.000 C 
ENDBRANCH  19  20
ENDBRANCH  15  19
ENDBRANCH  14  15
ENDBRANCH  13  14
ENDBRANCH   1  13
TORSDOF 8
ENDMDL
MODEL 3
REMARK VINA RESULT:    -6.798      1.606      2.290
REMARK INTER + INTRA:         -10.428
REMARK INTER:                  -9.637
REMARK INTRA:                  -0.791
REMARK UNBOUND:                -0.650
REMARK  Name = 
REMARK  8 active torsions:
REMARK  status: ('A' for Active; 'I' for Inactive)
REMARK    1  A    between atoms: C_2  and  C_3
REMARK    2  A    between atoms: C_3  and  N_4
REMARK    3  A    between atoms: N_4  and  C_5
REMARK    4  A    between atoms: N_4  and  C_8
REMARK    5  A    between atoms: C_5  and  C_6
REMARK    6  A    between atoms: C_8  and  C_9
REMARK    7  A    between atoms: C_9  and  C_10
REMARK    8  A    between atoms: C_16  and  O_17
REMARK                            x       y       z     vdW  Elec       q    Type
REMARK                         _______ _______ _______ _____ _____    ______ ____
ROOT
ATOM      1  C   UNL     1      96.671 107.810  93.166  0.00  0.00    +0.000 A 
ATOM      2  N   UNL     1      96.765 106.471  92.866  0.00  0.00    +0.000 N 
ATOM      3  C   UNL     1      97.353 106.296  91.633  0.00  0.00    +0.000 A 
ATOM      4  C   UNL     1      97.577 105.132  90.888  0.00  0.00    +0.000 A 
ATOM      5  C   UNL     1      98.162 105.275  89.623  0.00  0.00    +0.000 A 
ATOM      6  C   UNL     1      98.525 106.529  89.131  0.00  0.00    +0.000 A 
ATOM      7  C   UNL     1      98.312 107.676  89.901  0.00  0.00    +0.000 A 
ATOM      8  C   UNL     1      97.710 107.561  91.168  0.00  0.00    +0.000 A 
ATOM      9  C   UNL     1      97.316 108.499  92.161  0.00  0.00    +0.000 A 
ATOM     10  H   UNL     1      96.373 105.733  93.442  0.00  0.00    +0.000 HD
ENDROOT
BRANCH   7  11
ATOM     11  O   UNL     1      98.655 108.913  89.421  0.00  0.00    +0.000 OA
ATOM     12  H   UNL     1      97.909 109.515  89.564  0.00  0.00    +0.000 HD
ENDBRANCH   7  11
BRANCH   1  13
ATOM     13  C   UNL     1      95.958 108.324  94.375  0.00  0.00    +0.000 C 
BRANCH  13  14
ATOM     14  C   UNL     1      96.800 109.283  95.246  0.00  0.00    +0.000 C 
BRANCH  14  15
ATOM     15  N   UNL     1      96.861 108.973  96.706  0.00  0.00    +0.000 NA
BRANCH  15  16
ATOM     16  C   UNL     1      95.793 108.005  97.042  0.00  0.00    +0.000 C 
BRANCH  16  18
ATOM     17  C   UNL     1      94.230 109.369  98.450  0.00  0.00    +0.000 C 
ATOM     18  C   UNL     1      95.050 108.320  98.308  0.00  0.00    +0.000 C 
ENDBRANCH  16  18
ENDBRANCH  15  16
BRANCH  15  19
ATOM     19  C   UNL     1      98.186 108.392  97.032  0.00  0.00    +0.000 C 
BRANCH  19  20
ATOM     20  C   UNL     1      98.341 106.972  96.558  0.00  0.00    +0.000 C 
ATOM     21  C   UNL     1      99.291 106.558  95.708  0.00  0.00    +0.000 C 
ENDBRANCH  19  20
ENDBRANCH  15  19
ENDBRANCH  14  15
ENDBRANCH  13  14
ENDBRANCH   1  13
TORSDOF 8
ENDMDL
MODEL 4
REMARK VINA RESULT:    -6.793      1.767      3.030
REMARK INTER + INTRA:         -10.421
REMARK INTER:                  -9.827
REMARK INTRA:                  -0.595
REMARK UNBOUND:                -0.650
REMARK  Name = 
REMARK  8 active torsions:
REMARK  status: ('A' for Active; 'I' for Inactive)
REMARK    1  A    between atoms: C_2  and  C_3
REMARK    2  A    between atoms: C_3  and  N_4
REMARK    3  A    between atoms: N_4  and  C_5
REMARK    4  A    between atoms: N_4  and  C_8
REMARK    5  A    between atoms: C_5  and  C_6
REMARK    6  A    between atoms: C_8  and  C_9
REMARK    7  A    between atoms: C_9  and  C_10
REMARK    8  A    between atoms: C_16  and  O_17
REMARK                            x       y       z     vdW  Elec       q    Type
REMARK                         _______ _______ _______ _____ _____    ______ ____
ROOT
ATOM      1  C   UNL     1      96.492 107.758  92.972  0.00  0.00    +0.000 A 
ATOM      2  N   UNL     1      96.625 106.428  92.646  0.00  0.00    +0.000 N 
ATOM      3  C   UNL     1      97.306 106.292  91.457  0.00  0.00    +0.000 A 
ATOM      4  C   UNL     1      97.601 105.150  90.702  0.00  0.00    +0.000 A 
ATOM      5  C   UNL     1      98.278 105.333  89.489  0.00  0.00    +0.000 A 
ATOM      6  C   UNL     1      98.663 106.603  89.059  0.00  0.00    +0.000 A 
ATOM      7  C   UNL     1      98.377 107.727  89.840  0.00  0.00    +0.000 A 
ATOM      8  C   UNL     1      97.683 107.573  91.054  0.00  0.00    +0.000 A 
ATOM      9  C   UNL     1      97.203 108.480  92.038  0.00  0.00    +0.000 A 
ATOM     10  H   UNL     1      96.199 105.671  93.171  0.00  0.00    +0.000 HD
ENDROOT
BRANCH   7  11
ATOM     11  O   UNL     1      98.742 108.980  89.420  0.00  0.00    +0.000 OA
ATOM     12  H   UNL     1      98.000 109.584  89.579  0.00  0.00    +0.000 HD
ENDBRANCH   7  11
BRANCH   1  13
ATOM     13  C   UNL     1      95.683 108.232  94.136  0.00  0.00    +0.000 C 
BRANCH  13  14
ATOM     14  C   UNL     1      96.506 108.480  95.420  0.00  0.00    +0.000 C 
BRANCH  14  15
ATOM     15  N   UNL     1      96.230 107.570  96.572  0.00  0.00    +0.000 NA
BRANCH  15  16
ATOM     16  C   UNL     1      97.240 106.489  96.590  0.00  0.00    +0.000 C 
BRANCH  16  18
ATOM     17  C   UNL     1      97.361 104.009  96.243  0.00  0.00    +0.000 C 
ATOM     18  C   UNL     1      96.758 105.184  96.026  0.00  0.00    +0.000 C 
ENDBRANCH  16  18
ENDBRANCH  15  16
BRANCH  15  19
ATOM     19  C   UNL     1      96.298 108.342  97.837  0.00  0.00    +0.000 C 
BRANCH  19  20
ATOM     20  C   UNL     1      94.971 108.445  98.539  0.00  0.00    +0.000 C 
ATOM     21  C   UNL     1      94.072 109.415  98.317  0.00  0.00    +0.000 C 
ENDBRANCH  19  20
ENDBRANCH  15  19
ENDBRANCH  14  15
ENDBRANCH  13  14
ENDBRANCH   1  13
TORSDOF 8
ENDMDL
MODEL 5
REMARK VINA RESULT:    -6.666      3.045      4.803
REMARK INTER + INTRA:         -10.238
REMARK INTER:                  -9.150
REMARK INTRA:                  -1.089
REMARK UNBOUND:                -0.650
REMARK  Name = 
REMARK  8 active torsions:
REMARK  status: ('A' for Active; 'I' for Inactive)
REMARK    1  A    between atoms: C_2  and  C_3
REMARK    2  A    between atoms: C_3  and  N_4
REMARK    3  A    between atoms: N_4  and  C_5
REMARK    4  A    between atoms: N_4  and  C_8
REMARK    5  A    between atoms: C_5  and  C_6
REMARK    6  A    between atoms: C_8  and  C_9
REMARK    7  A    between atoms: C_9  and  C_10
REMARK    8  A    between atoms: C_16  and  O_17
REMARK                            x       y       z     vdW  Elec       q    Type
REMARK                         _______ _______ _______ _____ _____    ______ ____
ROOT
ATOM      1  C   UNL     1      97.121 106.898  93.809  0.00  0.00    +0.000 A 
ATOM      2  N   UNL     1      97.220 105.672  93.194  0.00  0.00    +0.000 N 
ATOM      3  C   UNL     1      97.559 105.827  91.867  0.00  0.00    +0.000 A 
ATOM      4  C   UNL     1      97.689 104.881  90.844  0.00  0.00    +0.000 A 
ATOM      5  C   UNL     1      98.004 105.352  89.563  0.00  0.00    +0.000 A 
ATOM      6  C   UNL     1      98.199 106.711  89.319  0.00  0.00    +0.000 A 
ATOM      7  C   UNL     1      98.086 107.637  90.360  0.00  0.00    +0.000 A 
ATOM      8  C   UNL     1      97.754 107.191  91.654  0.00  0.00    +0.000 A 
ATOM      9  C   UNL     1      97.519 107.847  92.893  0.00  0.00    +0.000 A 
ATOM     10  H   UNL     1      96.987 104.792  93.643  0.00  0.00    +0.000 HD
ENDROOT
BRANCH   7  11
ATOM     11  O   UNL     1      98.266 108.976  90.128  0.00  0.00    +0.000 OA
ATOM     12  H   UNL     1      98.574 109.390  90.948  0.00  0.00    +0.000 HD
ENDBRANCH   7  11
BRANCH   1  13
ATOM     13  C   UNL     1      96.637 107.066  95.213  0.00  0.00    +0.000 C 
BRANCH  13  14
ATOM     14  C   UNL     1      96.649 105.765  96.046  0.00  0.00    +0.000 C 
BRANCH  14  15
ATOM     15  N   UNL     1      97.888 104.934  95.963  0.00  0.00    +0.000 NA
BRANCH  15  16
ATOM     16  C   UNL     1      98.796 105.305  97.071  0.00  0.00    +0.000 C 
BRANCH  16  18
ATOM     17  C   UNL     1     100.146 107.329  96.464  0.00  0.00    +0.000 C 
ATOM     18  C   UNL     1     100.051 106.004  96.634  0.00  0.00    +0.000 C 
ENDBRANCH  16  18
ENDBRANCH  15  16
BRANCH  15  19
ATOM     19  C   UNL     1      97.528 103.500  96.068  0.00  0.00    +0.000 C 
BRANCH  19  20
ATOM     20  C   UNL     1      98.589 102.582  95.523  0.00  0.00    +0.000 C 
ATOM     21  C   UNL     1      98.615 102.119  94.265  0.00  0.00    +0.000 C 
ENDBRANCH  19  20
ENDBRANCH  15  19
ENDBRANCH  14  15
ENDBRANCH  13  14
ENDBRANCH   1  13
TORSDOF 8
ENDMDL
MODEL 6
REMARK VINA RESULT:    -6.482      4.223      6.983
REMARK INTER + INTRA:          -9.975
REMARK INTER:                  -9.242
REMARK INTRA:                  -0.732
REMARK UNBOUND:                -0.650
REMARK  Name = 
REMARK  8 active torsions:
REMARK  status: ('A' for Active; 'I' for Inactive)
REMARK    1  A    between atoms: C_2  and  C_3
REMARK    2  A    between atoms: C_3  and  N_4
REMARK    3  A    between atoms: N_4  and  C_5
REMARK    4  A    between atoms: N_4  and  C_8
REMARK    5  A    between atoms: C_5  and  C_6
REMARK    6  A    between atoms: C_8  and  C_9
REMARK    7  A    between atoms: C_9  and  C_10
REMARK    8  A    between atoms: C_16  and  O_17
REMARK                            x       y       z     vdW  Elec       q    Type
REMARK                         _______ _______ _______ _____ _____    ______ ____
ROOT
ATOM      1  C   UNL     1      98.092 106.226  94.196  0.00  0.00    +0.000 A 
ATOM      2  N   UNL     1      98.904 106.511  95.269  0.00  0.00    +0.000 N 
ATOM      3  C   UNL     1      98.947 105.441  96.136  0.00  0.00    +0.000 A 
ATOM      4  C   UNL     1      99.567 105.304  97.383  0.00  0.00    +0.000 A 
ATOM      5  C   UNL     1      99.391 104.092  98.064  0.00  0.00    +0.000 A 
ATOM      6  C   UNL     1      98.643 103.053  97.510  0.00  0.00    +0.000 A 
ATOM      7  C   UNL     1      98.050 103.204  96.253  0.00  0.00    +0.000 A 
ATOM      8  C   UNL     1      98.197 104.418  95.556  0.00  0.00    +0.000 A 
ATOM      9  C   UNL     1      97.703 104.910  94.318  0.00  0.00    +0.000 A 
ATOM     10  H   UNL     1      99.333 107.417  95.430  0.00  0.00    +0.000 HD
ENDROOT
BRANCH   7  11
ATOM     11  O   UNL     1      97.304 102.192  95.707  0.00  0.00    +0.000 OA
ATOM     12  H   UNL     1      96.911 101.677  96.428  0.00  0.00    +0.000 HD
ENDBRANCH   7  11
BRANCH   1  13
ATOM     13  C   UNL     1      97.737 107.237  93.154  0.00  0.00    +0.000 C 
BRANCH  13  14
ATOM     14  C   UNL     1      96.520 106.850  92.285  0.00  0.00    +0.000 C 
BRANCH  14  15
ATOM     15  N   UNL     1      96.750 106.786  90.810  0.00  0.00    +0.000 NA
BRANCH  15  16
ATOM     16  C   UNL     1      95.522 107.220  90.108  0.00  0.00    +0.000 C 
BRANCH  16  18
ATOM     17  C   UNL     1      95.176 104.900  89.221  0.00  0.00    +0.000 C 
ATOM     18  C   UNL     1      94.683 106.093  89.578  0.00  0.00    +0.000 C 
ENDBRANCH  16  18
ENDBRANCH  15  16
BRANCH  15  19
ATOM     19  C   UNL     1      97.878 107.679  90.448  0.00  0.00    +0.000 C 
BRANCH  19  20
ATOM     20  C   UNL     1      98.833 107.056  89.465  0.00  0.00    +0.000 C 
ATOM     21  C   UNL     1      98.716 105.812  88.982  0.00  0.00    +0.000 C 
ENDBRANCH  19  20
ENDBRANCH  15  19
ENDBRANCH  14  15
ENDBRANCH  13  14
ENDBRANCH   1  13
TORSDOF 8
ENDMDL
MODEL 7
REMARK VINA RESULT:    -6.358      1.776      2.247
REMARK INTER + INTRA:          -9.795
REMARK INTER:                  -9.090
REMARK INTRA:                  -0.706
REMARK UNBOUND:                -0.650
REMARK  Name = 
REMARK  8 active torsions:
REMARK  status: ('A' for Active; 'I' for Inactive)
REMARK    1  A    between atoms: C_2  and  C_3
REMARK    2  A    between atoms: C_3  and  N_4
REMARK    3  A    between atoms: N_4  and  C_5
REMARK    4  A    between atoms: N_4  and  C_8
REMARK    5  A    between atoms: C_5  and  C_6
REMARK    6  A    between atoms: C_8  and  C_9
REMARK    7  A    between atoms: C_9  and  C_10
REMARK    8  A    between atoms: C_16  and  O_17
REMARK                            x       y       z     vdW  Elec       q    Type
REMARK                         _______ _______ _______ _____ _____    ______ ____
ROOT
ATOM      1  C   UNL     1      96.954 108.187  92.428  0.00  0.00    +0.000 A 
ATOM      2  N   UNL     1      97.865 108.605  91.485  0.00  0.00    +0.000 N 
ATOM      3  C   UNL     1      98.069 107.619  90.546  0.00  0.00    +0.000 A 
ATOM      4  C   UNL     1      98.955 107.562  89.463  0.00  0.00    +0.000 A 
ATOM      5  C   UNL     1      98.969 106.388  88.699  0.00  0.00    +0.000 A 
ATOM      6  C   UNL     1      98.119 105.322  88.994  0.00  0.00    +0.000 A 
ATOM      7  C   UNL     1      97.227 105.409  90.066  0.00  0.00    +0.000 A 
ATOM      8  C   UNL     1      97.204 106.571  90.860  0.00  0.00    +0.000 A 
ATOM      9  C   UNL     1      96.478 106.960  92.018  0.00  0.00    +0.000 A 
ATOM     10  H   UNL     1      98.372 109.483  91.537  0.00  0.00    +0.000 HD
ENDROOT
BRANCH   7  11
ATOM     11  O   UNL     1      96.395 104.362  90.370  0.00  0.00    +0.000 OA
ATOM     12  H   UNL     1      96.516 104.137  91.305  0.00  0.00    +0.000 HD
ENDBRANCH   7  11
BRANCH   1  13
ATOM     13  C   UNL     1      96.626 108.983  93.650  0.00  0.00    +0.000 C 
BRANCH  13  14
ATOM     14  C   UNL     1      96.264 108.126  94.883  0.00  0.00    +0.000 C 
BRANCH  14  15
ATOM     15  N   UNL     1      96.188 108.844  96.192  0.00  0.00    +0.000 NA
BRANCH  15  16
ATOM     16  C   UNL     1      95.748 107.897  97.240  0.00  0.00    +0.000 C 
BRANCH  16  18
ATOM     17  C   UNL     1      94.076 109.325  98.447  0.00  0.00    +0.000 C 
ATOM     18  C   UNL     1      95.170 108.553  98.461  0.00  0.00    +0.000 C 
ENDBRANCH  16  18
ENDBRANCH  15  16
BRANCH  15  19
ATOM     19  C   UNL     1      97.525 109.387  96.535  0.00  0.00    +0.000 C 
BRANCH  19  20
ATOM     20  C   UNL     1      97.554 110.891  96.597  0.00  0.00    +0.000 C 
ATOM     21  C   UNL     1      96.462 111.667  96.643  0.00  0.00    +0.000 C 
ENDBRANCH  19  20
ENDBRANCH  15  19
ENDBRANCH  14  15
ENDBRANCH  13  14
ENDBRANCH   1  13
TORSDOF 8
ENDMDL
MODEL 8
REMARK VINA RESULT:    -6.092      2.018      2.902
REMARK INTER + INTRA:          -9.414
REMARK INTER:                  -8.805
REMARK INTRA:                  -0.609
REMARK UNBOUND:                -0.650
REMARK  Name = 
REMARK  8 active torsions:
REMARK  status: ('A' for Active; 'I' for Inactive)
REMARK    1  A    between atoms: C_2  and  C_3
REMARK    2  A    between atoms: C_3  and  N_4
REMARK    3  A    between atoms: N_4  and  C_5
REMARK    4  A    between atoms: N_4  and  C_8
REMARK    5  A    between atoms: C_5  and  C_6
REMARK    6  A    between atoms: C_8  and  C_9
REMARK    7  A    between atoms: C_9  and  C_10
REMARK    8  A    between atoms: C_16  and  O_17
REMARK                            x       y       z     vdW  Elec       q    Type
REMARK                         _______ _______ _______ _____ _____    ______ ____
ROOT
ATOM      1  C   UNL     1      96.163 108.019  92.474  0.00  0.00    +0.000 A 
ATOM      2  N   UNL     1      97.322 108.355  91.813  0.00  0.00    +0.000 N 
ATOM      3  C   UNL     1      97.595 107.433  90.826  0.00  0.00    +0.000 A 
ATOM      4  C   UNL     1      98.693 107.320  89.965  0.00  0.00    +0.000 A 
ATOM      5  C   UNL     1      98.715 106.231  89.083  0.00  0.00    +0.000 A 
ATOM      6  C   UNL     1      97.672 105.305  89.051  0.00  0.00    +0.000 A 
ATOM      7  C   UNL     1      96.575 105.450  89.904  0.00  0.00    +0.000 A 
ATOM      8  C   UNL     1      96.536 106.526  90.811  0.00  0.00    +0.000 A 
ATOM      9  C   UNL     1      95.622 106.931  91.822  0.00  0.00    +0.000 A 
ATOM     10  H   UNL     1      97.925 109.125  92.082  0.00  0.00    +0.000 HD
ENDROOT
BRANCH   7  11
ATOM     11  O   UNL     1      95.551 104.538  89.887  0.00  0.00    +0.000 OA
ATOM     12  H   UNL     1      95.842 103.761  89.386  0.00  0.00    +0.000 HD
ENDBRANCH   7  11
BRANCH   1  13
ATOM     13  C   UNL     1      95.676 108.749  93.683  0.00  0.00    +0.000 C 
BRANCH  13  14
ATOM     14  C   UNL     1      96.783 109.500  94.457  0.00  0.00    +0.000 C 
BRANCH  14  15
ATOM     15  N   UNL     1      96.830 109.275  95.934  0.00  0.00    +0.000 NA
BRANCH  15  16
ATOM     16  C   UNL     1      97.135 110.556  96.610  0.00  0.00    +0.000 C 
BRANCH  16  18
ATOM     17  C   UNL     1      98.344 109.964  98.725  0.00  0.00    +0.000 C 
ATOM     18  C   UNL     1      98.341 110.510  97.503  0.00  0.00    +0.000 C 
ENDBRANCH  16  18
ENDBRANCH  15  16
BRANCH  15  19
ATOM     19  C   UNL     1      95.517 108.764  96.397  0.00  0.00    +0.000 C 
BRANCH  19  20
ATOM     20  C   UNL     1      94.739 109.771  97.200  0.00  0.00    +0.000 C 
ATOM     21  C   UNL     1      94.090 109.492  98.339  0.00  0.00    +0.000 C 
ENDBRANCH  19  20
ENDBRANCH  15  19
ENDBRANCH  14  15
ENDBRANCH  13  14
ENDBRANCH   1  13
TORSDOF 8
ENDMDL
MODEL 9
REMARK VINA RESULT:    -6.081      2.610      7.408
REMARK INTER + INTRA:          -9.397
REMARK INTER:                  -8.721
REMARK INTRA:                  -0.676
REMARK UNBOUND:                -0.650
REMARK  Name = 
REMARK  8 active torsions:
REMARK  status: ('A' for Active; 'I' for Inactive)
REMARK    1  A    between atoms: C_2  and  C_3
REMARK    2  A    between atoms: C_3  and  N_4
REMARK    3  A    between atoms: N_4  and  C_5
REMARK    4  A    between atoms: N_4  and  C_8
REMARK    5  A    between atoms: C_5  and  C_6
REMARK    6  A    between atoms: C_8  and  C_9
REMARK    7  A    between atoms: C_9  and  C_10
REMARK    8  A    between atoms: C_16  and  O_17
REMARK                            x       y       z     vdW  Elec       q    Type
REMARK                         _______ _______ _______ _____ _____    ______ ____
ROOT
ATOM      1  C   UNL     1      97.399 107.768  92.486  0.00  0.00    +0.000 A 
ATOM      2  N   UNL     1      96.830 108.806  93.187  0.00  0.00    +0.000 N 
ATOM      3  C   UNL     1      96.536 108.411  94.474  0.00  0.00    +0.000 A 
ATOM      4  C   UNL     1      95.885 109.093  95.509  0.00  0.00    +0.000 A 
ATOM      5  C   UNL     1      95.685 108.404  96.712  0.00  0.00    +0.000 A 
ATOM      6  C   UNL     1      96.136 107.094  96.881  0.00  0.00    +0.000 A 
ATOM      7  C   UNL     1      96.803 106.441  95.841  0.00  0.00    +0.000 A 
ATOM      8  C   UNL     1      97.002 107.104  94.616  0.00  0.00    +0.000 A 
ATOM      9  C   UNL     1      97.582 106.729  93.373  0.00  0.00    +0.000 A 
ATOM     10  H   UNL     1      96.587 109.701  92.776  0.00  0.00    +0.000 HD
ENDROOT
BRANCH   7  11
ATOM     11  O   UNL     1      97.240 105.150  95.994  0.00  0.00    +0.000 OA
ATOM     12  H   UNL     1      97.862 104.951  95.277  0.00  0.00    +0.000 HD
ENDBRANCH   7  11
BRANCH   1  13
ATOM     13  C   UNL     1      97.705 107.845  91.026  0.00  0.00    +0.000 C 
BRANCH  13  14
ATOM     14  C   UNL     1      96.626 107.212  90.119  0.00  0.00    +0.000 C 
BRANCH  14  15
ATOM     15  N   UNL     1      96.984 105.919  89.463  0.00  0.00    +0.000 NA
BRANCH  15  16
ATOM     16  C   UNL     1      98.452 105.742  89.508  0.00  0.00    +0.000 C 
BRANCH  16  18
ATOM     17  C   UNL     1      99.870 107.128  87.974  0.00  0.00    +0.000 C 
ATOM     18  C   UNL     1      99.149 106.025  88.208  0.00  0.00    +0.000 C 
ENDBRANCH  16  18
ENDBRANCH  15  16
BRANCH  15  19
ATOM     19  C   UNL     1      96.322 104.802  90.180  0.00  0.00    +0.000 C 
BRANCH  19  20
ATOM     20  C   UNL     1      95.323 104.063  89.331  0.00  0.00    +0.000 C 
ATOM     21  C   UNL     1      94.235 104.623  88.785  0.00  0.00    +0.000 C 
ENDBRANCH  19  20
ENDBRANCH  15  19
ENDBRANCH  14  15
ENDBRANCH  13  14
ENDBRANCH   1  13
TORSDOF 8
ENDMDL
