MODEL 1
REMARK VINA RESULT:    -6.712      0.000      0.000
REMARK INTER + INTRA:         -10.177
REMARK INTER:                  -9.459
REMARK INTRA:                  -0.718
REMARK UNBOUND:                -0.718
REMARK  Name = 
REMARK  7 active torsions:
REMARK  status: ('A' for Active; 'I' for Inactive)
REMARK    1  A    between atoms: C_2  and  C_3
REMARK    2  A    between atoms: C_3  and  N_4
REMARK    3  A    between atoms: N_4  and  C_5
REMARK    4  A    between atoms: N_4  and  C_8
REMARK    5  A    between atoms: C_5  and  C_6
REMARK    6  A    between atoms: C_8  and  C_9
REMARK    7  A    between atoms: C_9  and  C_10
REMARK                            x       y       z     vdW  Elec       q    Type
REMARK                         _______ _______ _______ _____ _____    ______ ____
ROOT
ATOM      1  C   UNL     1      96.321 107.853  92.599  0.00  0.00    +0.000 A 
ATOM      2  C   UNL     1      95.287 108.612  93.117  0.00  0.00    +0.000 A 
ATOM      3  N   UNL     1      95.285 108.471  94.478  0.00  0.00    +0.000 N 
ATOM      4  C   UNL     1      96.302 107.630  94.867  0.00  0.00    +0.000 A 
ATOM      5  C   UNL     1      96.684 107.207  96.145  0.00  0.00    +0.000 A 
ATOM      6  C   UNL     1      97.773 106.341  96.229  0.00  0.00    +0.000 A 
ATOM      7  F   UNL     1      98.172 105.918  97.437  0.00  0.00    +0.000 F 
ATOM      8  C   UNL     1      98.456 105.907  95.102  0.00  0.00    +0.000 A 
ATOM      9  C   UNL     1      98.061 106.339  93.832  0.00  0.00    +0.000 A 
ATOM     10  C   UNL     1      96.966 107.220  93.708  0.00  0.00    +0.000 A 
ATOM     11  H   UNL     1      94.639 108.921  95.109  0.00  0.00    +0.000 HD
ENDROOT
BRANCH   1  12
ATOM     12  C   UNL     1      96.690 107.731  91.150  0.00  0.00    +0.000 C 
BRANCH  12  13
ATOM     13  C   UNL     1      95.744 106.784  90.389  0.00  0.00    +0.000 C 
BRANCH  13  14
ATOM     14  N   UNL     1      96.257 105.414  90.139  0.00  0.00    +0.000 NA
BRANCH  14  15
ATOM     15  C   UNL     1      95.647 104.899  88.900  0.00  0.00    +0.000 C 
BRANCH  15  17
ATOM     16  C   UNL     1      94.251 102.881  89.442  0.00  0.00    +0.000 C 
ATOM     17  C   UNL     1      94.345 104.174  89.104  0.00  0.00    +0.000 C 
ENDBRANCH  15  17
ENDBRANCH  14  15
BRANCH  14  18
ATOM     18  C   UNL     1      97.728 105.343  90.141  0.00  0.00    +0.000 C 
BRANCH  18  19
ATOM     19  C   UNL     1      98.390 105.587  88.813  0.00  0.00    +0.000 C 
ATOM     20  C   UNL     1      99.350 106.497  88.593  0.00  0.00    +0.000 C 
ENDBRANCH  18  19
ENDBRANCH  14  18
ENDBRANCH  13  14
ENDBRANCH  12  13
ENDBRANCH   1  12
TORSDOF 7
ENDMDL
MODEL 2
REMARK VINA RESULT:    -6.685      3.126      7.014
REMARK INTER + INTRA:         -10.140
REMARK INTER:                  -9.404
REMARK INTRA:                  -0.736
REMARK UNBOUND:                -0.718
REMARK  Name = 
REMARK  7 active torsions:
REMARK  status: ('A' for Active; 'I' for Inactive)
REMARK    1  A    between atoms: C_2  and  C_3
REMARK    2  A    between atoms: C_3  and  N_4
REMARK    3  A    between atoms: N_4  and  C_5
REMARK    4  A    between atoms: N_4  and  C_8
REMARK    5  A    between atoms: C_5  and  C_6
REMARK    6  A    between atoms: C_8  and  C_9
REMARK    7  A    between atoms: C_9  and  C_10
REMARK                            x       y       z     vdW  Elec       q    Type
REMARK                         _______ _______ _______ _____ _____    ______ ____
ROOT
ATOM      1  C   UNL     1      97.152 107.870  93.155  0.00  0.00    +0.000 A 
ATOM      2  C   UNL     1      96.883 106.685  93.818  0.00  0.00    +0.000 A 
ATOM      3  N   UNL     1      97.138 105.645  92.966  0.00  0.00    +0.000 N 
ATOM      4  C   UNL     1      97.569 106.123  91.751  0.00  0.00    +0.000 A 
ATOM      5  C   UNL     1      97.950 105.435  90.594  0.00  0.00    +0.000 A 
ATOM      6  C   UNL     1      98.349 106.201  89.500  0.00  0.00    +0.000 A 
ATOM      7  F   UNL     1      98.726 105.578  88.375  0.00  0.00    +0.000 F 
ATOM      8  C   UNL     1      98.371 107.589  89.543  0.00  0.00    +0.000 A 
ATOM      9  C   UNL     1      97.988 108.261  90.708  0.00  0.00    +0.000 A 
ATOM     10  C   UNL     1      97.582 107.518  91.837  0.00  0.00    +0.000 A 
ATOM     11  H   UNL     1      97.032 104.667  93.194  0.00  0.00    +0.000 HD
ENDROOT
BRANCH   1  12
ATOM     12  C   UNL     1      97.021 109.251  93.724  0.00  0.00    +0.000 C 
BRANCH  12  13
ATOM     13  C   UNL     1      97.189 109.265  95.255  0.00  0.00    +0.000 C 
BRANCH  13  14
ATOM     14  N   UNL     1      95.967 109.573  96.040  0.00  0.00    +0.000 NA
BRANCH  14  15
ATOM     15  C   UNL     1      94.912 110.026  95.117  0.00  0.00    +0.000 C 
BRANCH  15  17
ATOM     16  C   UNL     1      94.938 112.537  95.023  0.00  0.00    +0.000 C 
ATOM     17  C   UNL     1      94.364 111.393  95.421  0.00  0.00    +0.000 C 
ENDBRANCH  15  17
ENDBRANCH  14  15
BRANCH  14  18
ATOM     18  C   UNL     1      95.549 108.461  96.910  0.00  0.00    +0.000 C 
BRANCH  18  19
ATOM     19  C   UNL     1      95.087 108.854  98.286  0.00  0.00    +0.000 C 
ATOM     20  C   UNL     1      93.894 109.397  98.566  0.00  0.00    +0.000 C 
ENDBRANCH  18  19
ENDBRANCH  14  18
ENDBRANCH  13  14
ENDBRANCH  12  13
ENDBRANCH   1  12
TORSDOF 7
ENDMDL
MODEL 3
REMARK VINA RESULT:    -6.665      3.079      6.761
REMARK INTER + INTRA:         -10.110
REMARK INTER:                  -9.206
REMARK INTRA:                  -0.904
REMARK UNBOUND:                -0.718
REMARK  Name = 
REMARK  7 active torsions:
REMARK  status: ('A' for Active; 'I' for Inactive)
REMARK    1  A    between atoms: C_2  and  C_3
REMARK    2  A    between atoms: C_3  and  N_4
REMARK    3  A    between atoms: N_4  and  C_5
REMARK    4  A    between atoms: N_4  and  C_8
REMARK    5  A    between atoms: C_5  and  C_6
REMARK    6  A    between atoms: C_8  and  C_9
REMARK    7  A    between atoms: C_9  and  C_10
REMARK                            x       y       z     vdW  Elec       q    Type
REMARK                         _______ _______ _______ _____ _____    ______ ____
ROOT
ATOM      1  C   UNL     1      97.027 107.942  93.291  0.00  0.00    +0.000 A 
ATOM      2  C   UNL     1      96.822 106.690  93.843  0.00  0.00    +0.000 A 
ATOM      3  N   UNL     1      97.158 105.746  92.912  0.00  0.00    +0.000 N 
ATOM      4  C   UNL     1      97.583 106.354  91.753  0.00  0.00    +0.000 A 
ATOM      5  C   UNL     1      98.029 105.793  90.551  0.00  0.00    +0.000 A 
ATOM      6  C   UNL     1      98.400 106.675  89.538  0.00  0.00    +0.000 A 
ATOM      7  F   UNL     1      98.838 106.177  88.373  0.00  0.00    +0.000 F 
ATOM      8  C   UNL     1      98.333 108.052  89.700  0.00  0.00    +0.000 A 
ATOM      9  C   UNL     1      97.884 108.596  90.908  0.00  0.00    +0.000 A 
ATOM     10  C   UNL     1      97.504 107.733  91.959  0.00  0.00    +0.000 A 
ATOM     11  H   UNL     1      97.111 104.746  93.053  0.00  0.00    +0.000 HD
ENDROOT
BRANCH   1  12
ATOM     12  C   UNL     1      96.797 109.258  93.972  0.00  0.00    +0.000 C 
BRANCH  12  13
ATOM     13  C   UNL     1      95.678 109.175  95.027  0.00  0.00    +0.000 C 
BRANCH  13  14
ATOM     14  N   UNL     1      96.102 109.345  96.440  0.00  0.00    +0.000 NA
BRANCH  14  15
ATOM     15  C   UNL     1      95.462 108.297  97.255  0.00  0.00    +0.000 C 
BRANCH  15  17
ATOM     16  C   UNL     1      94.714 109.987  98.958  0.00  0.00    +0.000 C 
ATOM     17  C   UNL     1      94.543 108.818  98.326  0.00  0.00    +0.000 C 
ENDBRANCH  15  17
ENDBRANCH  14  15
BRANCH  14  18
ATOM     18  C   UNL     1      97.564 109.400  96.598  0.00  0.00    +0.000 C 
BRANCH  18  19
ATOM     19  C   UNL     1      98.208 108.139  97.104  0.00  0.00    +0.000 C 
ATOM     20  C   UNL     1      99.304 107.575  96.577  0.00  0.00    +0.000 C 
ENDBRANCH  18  19
ENDBRANCH  14  18
ENDBRANCH  13  14
ENDBRANCH  12  13
ENDBRANCH   1  12
TORSDOF 7
ENDMDL
MODEL 4
REMARK VINA RESULT:    -6.614      3.323      6.918
REMARK INTER + INTRA:         -10.039
REMARK INTER:                  -9.513
REMARK INTRA:                  -0.526
REMARK UNBOUND:                -0.718
REMARK  Name = 
REMARK  7 active torsions:
REMARK  status: ('A' for Active; 'I' for Inactive)
REMARK    1  A    between atoms: C_2  and  C_3
REMARK    2  A    between atoms: C_3  and  N_4
REMARK    3  A    between atoms: N_4  and  C_5
REMARK    4  A    between atoms: N_4  and  C_8
REMARK    5  A    between atoms: C_5  and  C_6
REMARK    6  A    between atoms: C_8  and  C_9
REMARK    7  A    between atoms: C_9  and  C_10
REMARK                            x       y       z     vdW  Elec       q    Type
REMARK                         _______ _______ _______ _____ _____    ______ ____
ROOT
ATOM      1  C   UNL     1      97.176 107.740  92.563  0.00  0.00    +0.000 A 
ATOM      2  C   UNL     1      96.820 106.486  93.026  0.00  0.00    +0.000 A 
ATOM      3  N   UNL     1      97.197 105.557  92.094  0.00  0.00    +0.000 N 
ATOM      4  C   UNL     1      97.796 106.178  91.023  0.00  0.00    +0.000 A 
ATOM      5  C   UNL     1      98.340 105.636  89.854  0.00  0.00    +0.000 A 
ATOM      6  C   UNL     1      98.888 106.528  88.934  0.00  0.00    +0.000 A 
ATOM      7  F   UNL     1      99.424 106.046  87.804  0.00  0.00    +0.000 F 
ATOM      8  C   UNL     1      98.898 107.898  89.155  0.00  0.00    +0.000 A 
ATOM      9  C   UNL     1      98.351 108.424  90.329  0.00  0.00    +0.000 A 
ATOM     10  C   UNL     1      97.790 107.550  91.286  0.00  0.00    +0.000 A 
ATOM     11  H   UNL     1      97.063 104.560  92.179  0.00  0.00    +0.000 HD
ENDROOT
BRANCH   1  12
ATOM     12  C   UNL     1      96.960 109.041  93.278  0.00  0.00    +0.000 C 
BRANCH  12  13
ATOM     13  C   UNL     1      95.699 109.013  94.162  0.00  0.00    +0.000 C 
BRANCH  13  14
ATOM     14  N   UNL     1      95.723 109.892  95.358  0.00  0.00    +0.000 NA
BRANCH  14  15
ATOM     15  C   UNL     1      95.382 109.086  96.544  0.00  0.00    +0.000 C 
BRANCH  15  17
ATOM     16  C   UNL     1      94.586 109.934  98.771  0.00  0.00    +0.000 C 
ATOM     17  C   UNL     1      94.380 109.726  97.464  0.00  0.00    +0.000 C 
ENDBRANCH  15  17
ENDBRANCH  14  15
BRANCH  14  18
ATOM     18  C   UNL     1      96.985 110.637  95.498  0.00  0.00    +0.000 C 
BRANCH  18  19
ATOM     19  C   UNL     1      96.887 112.122  95.286  0.00  0.00    +0.000 C 
ATOM     20  C   UNL     1      97.661 112.828  94.450  0.00  0.00    +0.000 C 
ENDBRANCH  18  19
ENDBRANCH  14  18
ENDBRANCH  13  14
ENDBRANCH  12  13
ENDBRANCH   1  12
TORSDOF 7
ENDMDL
MODEL 5
REMARK VINA RESULT:    -6.495      3.488      7.515
REMARK INTER + INTRA:          -9.871
REMARK INTER:                  -8.987
REMARK INTRA:                  -0.884
REMARK UNBOUND:                -0.718
REMARK  Name = 
REMARK  7 active torsions:
REMARK  status: ('A' for Active; 'I' for Inactive)
REMARK    1  A    between atoms: C_2  and  C_3
REMARK    2  A    between atoms: C_3  and  N_4
REMARK    3  A    between atoms: N_4  and  C_5
REMARK    4  A    between atoms: N_4  and  C_8
REMARK    5  A    between atoms: C_5  and  C_6
REMARK    6  A    between atoms: C_8  and  C_9
REMARK    7  A    between atoms: C_9  and  C_10
REMARK                            x       y       z     vdW  Elec       q    Type
REMARK                         _______ _______ _______ _____ _____    ______ ____
ROOT
ATOM      1  C   UNL     1      96.540 108.682  94.799  0.00  0.00    +0.000 A 
ATOM      2  C   UNL     1      95.291 109.276  94.771  0.00  0.00    +0.000 A 
ATOM      3  N   UNL     1      94.668 108.920  93.606  0.00  0.00    +0.000 N 
ATOM      4  C   UNL     1      95.486 108.100  92.863  0.00  0.00    +0.000 A 
ATOM      5  C   UNL     1      95.267 107.492  91.622  0.00  0.00    +0.000 A 
ATOM      6  C   UNL     1      96.296 106.702  91.112  0.00  0.00    +0.000 A 
ATOM      7  F   UNL     1      96.123 106.098  89.928  0.00  0.00    +0.000 F 
ATOM      8  C   UNL     1      97.491 106.519  91.794  0.00  0.00    +0.000 A 
ATOM      9  C   UNL     1      97.693 107.134  93.034  0.00  0.00    +0.000 A 
ATOM     10  C   UNL     1      96.671 107.938  93.584  0.00  0.00    +0.000 A 
ATOM     11  H   UNL     1      93.740 109.209  93.330  0.00  0.00    +0.000 HD
ENDROOT
BRANCH   1  12
ATOM     12  C   UNL     1      97.550 108.796  95.902  0.00  0.00    +0.000 C 
BRANCH  12  13
ATOM     13  C   UNL     1      97.400 110.112  96.689  0.00  0.00    +0.000 C 
BRANCH  13  14
ATOM     14  N   UNL     1      96.880 109.987  98.073  0.00  0.00    +0.000 NA
BRANCH  14  15
ATOM     15  C   UNL     1      96.460 108.592  98.297  0.00  0.00    +0.000 C 
BRANCH  15  17
ATOM     16  C   UNL     1      94.086 109.406  98.415  0.00  0.00    +0.000 C 
ATOM     17  C   UNL     1      94.982 108.415  98.512  0.00  0.00    +0.000 C 
ENDBRANCH  15  17
ENDBRANCH  14  15
BRANCH  14  18
ATOM     18  C   UNL     1      97.823 110.485  99.088  0.00  0.00    +0.000 C 
BRANCH  18  19
ATOM     19  C   UNL     1      97.351 111.670  99.885  0.00  0.00    +0.000 C 
ATOM     20  C   UNL     1      96.094 112.136  99.890  0.00  0.00    +0.000 C 
ENDBRANCH  18  19
ENDBRANCH  14  18
ENDBRANCH  13  14
ENDBRANCH  12  13
ENDBRANCH   1  12
TORSDOF 7
ENDMDL
MODEL 6
REMARK VINA RESULT:    -6.476      2.277      3.110
REMARK INTER + INTRA:          -9.845
REMARK INTER:                  -9.102
REMARK INTRA:                  -0.743
REMARK UNBOUND:                -0.718
REMARK  Name = 
REMARK  7 active torsions:
REMARK  status: ('A' for Active; 'I' for Inactive)
REMARK    1  A    between atoms: C_2  and  C_3
REMARK    2  A    between atoms: C_3  and  N_4
REMARK    3  A    between atoms: N_4  and  C_5
REMARK    4  A    between atoms: N_4  and  C_8
REMARK    5  A    between atoms: C_5  and  C_6
REMARK    6  A    between atoms: C_8  and  C_9
REMARK    7  A    between atoms: C_9  and  C_10
REMARK                            x       y       z     vdW  Elec       q    Type
REMARK                         _______ _______ _______ _____ _____    ______ ____
ROOT
ATOM      1  C   UNL     1      96.499 107.906  94.467  0.00  0.00    +0.000 A 
ATOM      2  C   UNL     1      96.980 106.737  95.029  0.00  0.00    +0.000 A 
ATOM      3  N   UNL     1      96.603 106.702  96.344  0.00  0.00    +0.000 N 
ATOM      4  C   UNL     1      95.881 107.830  96.659  0.00  0.00    +0.000 A 
ATOM      5  C   UNL     1      95.291 108.215  97.868  0.00  0.00    +0.000 A 
ATOM      6  C   UNL     1      94.611 109.431  97.884  0.00  0.00    +0.000 A 
ATOM      7  F   UNL     1      94.029 109.833  99.023  0.00  0.00    +0.000 F 
ATOM      8  C   UNL     1      94.517 110.236  96.757  0.00  0.00    +0.000 A 
ATOM      9  C   UNL     1      95.112 109.836  95.556  0.00  0.00    +0.000 A 
ATOM     10  C   UNL     1      95.805 108.608  95.501  0.00  0.00    +0.000 A 
ATOM     11  H   UNL     1      96.815 105.956  96.991  0.00  0.00    +0.000 HD
ENDROOT
BRANCH   1  12
ATOM     12  C   UNL     1      96.672 108.338  93.041  0.00  0.00    +0.000 C 
BRANCH  12  13
ATOM     13  C   UNL     1      95.586 107.747  92.121  0.00  0.00    +0.000 C 
BRANCH  13  14
ATOM     14  N   UNL     1      96.016 106.635  91.237  0.00  0.00    +0.000 NA
BRANCH  14  15
ATOM     15  C   UNL     1      95.307 106.752  89.951  0.00  0.00    +0.000 C 
BRANCH  15  17
ATOM     16  C   UNL     1      95.301 104.539  88.760  0.00  0.00    +0.000 C 
ATOM     17  C   UNL     1      94.666 105.477  89.476  0.00  0.00    +0.000 C 
ENDBRANCH  15  17
ENDBRANCH  14  15
BRANCH  14  18
ATOM     18  C   UNL     1      97.479 106.548  91.095  0.00  0.00    +0.000 C 
BRANCH  18  19
ATOM     19  C   UNL     1      98.041 107.126  89.826  0.00  0.00    +0.000 C 
ATOM     20  C   UNL     1      98.951 106.524  89.049  0.00  0.00    +0.000 C 
ENDBRANCH  18  19
ENDBRANCH  14  18
ENDBRANCH  13  14
ENDBRANCH  12  13
ENDBRANCH   1  12
TORSDOF 7
ENDMDL
MODEL 7
REMARK VINA RESULT:    -6.253      1.798      2.236
REMARK INTER + INTRA:          -9.530
REMARK INTER:                  -8.973
REMARK INTRA:                  -0.557
REMARK UNBOUND:                -0.718
REMARK  Name = 
REMARK  7 active torsions:
REMARK  status: ('A' for Active; 'I' for Inactive)
REMARK    1  A    between atoms: C_2  and  C_3
REMARK    2  A    between atoms: C_3  and  N_4
REMARK    3  A    between atoms: N_4  and  C_5
REMARK    4  A    between atoms: N_4  and  C_8
REMARK    5  A    between atoms: C_5  and  C_6
REMARK    6  A    between atoms: C_8  and  C_9
REMARK    7  A    between atoms: C_9  and  C_10
REMARK                            x       y       z     vdW  Elec       q    Type
REMARK                         _______ _______ _______ _____ _____    ______ ____
ROOT
ATOM      1  C   UNL     1      96.464 107.817  93.367  0.00  0.00    +0.000 A 
ATOM      2  C   UNL     1      95.239 108.203  92.854  0.00  0.00    +0.000 A 
ATOM      3  N   UNL     1      94.618 109.005  93.774  0.00  0.00    +0.000 N 
ATOM      4  C   UNL     1      95.415 109.154  94.885  0.00  0.00    +0.000 A 
ATOM      5  C   UNL     1      95.199 109.884  96.059  0.00  0.00    +0.000 A 
ATOM      6  C   UNL     1      96.203 109.847  97.025  0.00  0.00    +0.000 A 
ATOM      7  F   UNL     1      96.035 110.538  98.161  0.00  0.00    +0.000 F 
ATOM      8  C   UNL     1      97.371 109.120  96.844  0.00  0.00    +0.000 A 
ATOM      9  C   UNL     1      97.572 108.396  95.664  0.00  0.00    +0.000 A 
ATOM     10  C   UNL     1      96.578 108.413  94.661  0.00  0.00    +0.000 A 
ATOM     11  H   UNL     1      93.711 109.433  93.655  0.00  0.00    +0.000 HD
ENDROOT
BRANCH   1  12
ATOM     12  C   UNL     1      97.475 106.945  92.682  0.00  0.00    +0.000 C 
BRANCH  12  13
ATOM     13  C   UNL     1      97.333 106.991  91.149  0.00  0.00    +0.000 C 
BRANCH  13  14
ATOM     14  N   UNL     1      97.067 105.692  90.481  0.00  0.00    +0.000 NA
BRANCH  14  15
ATOM     15  C   UNL     1      95.682 105.695  89.976  0.00  0.00    +0.000 C 
BRANCH  15  17
ATOM     16  C   UNL     1      94.305 103.810  89.047  0.00  0.00    +0.000 C 
ATOM     17  C   UNL     1      95.380 104.606  88.983  0.00  0.00    +0.000 C 
ENDBRANCH  15  17
ENDBRANCH  14  15
BRANCH  14  18
ATOM     18  C   UNL     1      98.065 105.361  89.451  0.00  0.00    +0.000 C 
BRANCH  18  19
ATOM     19  C   UNL     1      98.721 106.538  88.782  0.00  0.00    +0.000 C 
ATOM     20  C   UNL     1     100.013 106.597  88.433  0.00  0.00    +0.000 C 
ENDBRANCH  18  19
ENDBRANCH  14  18
ENDBRANCH  13  14
ENDBRANCH  12  13
ENDBRANCH   1  12
TORSDOF 7
ENDMDL
MODEL 8
REMARK VINA RESULT:    -6.231      1.884      3.481
REMARK INTER + INTRA:          -9.499
REMARK INTER:                  -8.931
REMARK INTRA:                  -0.567
REMARK UNBOUND:                -0.718
REMARK  Name = 
REMARK  7 active torsions:
REMARK  status: ('A' for Active; 'I' for Inactive)
REMARK    1  A    between atoms: C_2  and  C_3
REMARK    2  A    between atoms: C_3  and  N_4
REMARK    3  A    between atoms: N_4  and  C_5
REMARK    4  A    between atoms: N_4  and  C_8
REMARK    5  A    between atoms: C_5  and  C_6
REMARK    6  A    between atoms: C_8  and  C_9
REMARK    7  A    between atoms: C_9  and  C_10
REMARK                            x       y       z     vdW  Elec       q    Type
REMARK                         _______ _______ _______ _____ _____    ______ ____
ROOT
ATOM      1  C   UNL     1      97.444 106.849  93.418  0.00  0.00    +0.000 A 
ATOM      2  C   UNL     1      97.445 105.799  94.319  0.00  0.00    +0.000 A 
ATOM      3  N   UNL     1      97.137 106.291  95.558  0.00  0.00    +0.000 N 
ATOM      4  C   UNL     1      96.933 107.650  95.490  0.00  0.00    +0.000 A 
ATOM      5  C   UNL     1      96.593 108.563  96.494  0.00  0.00    +0.000 A 
ATOM      6  C   UNL     1      96.452 109.898  96.118  0.00  0.00    +0.000 A 
ATOM      7  F   UNL     1      96.121 110.802  97.051  0.00  0.00    +0.000 F 
ATOM      8  C   UNL     1      96.639 110.317  94.808  0.00  0.00    +0.000 A 
ATOM      9  C   UNL     1      96.979 109.391  93.817  0.00  0.00    +0.000 A 
ATOM     10  C   UNL     1      97.127 108.030  94.160  0.00  0.00    +0.000 A 
ATOM     11  H   UNL     1      97.061 105.740  96.402  0.00  0.00    +0.000 HD
ENDROOT
BRANCH   1  12
ATOM     12  C   UNL     1      97.718 106.752  91.947  0.00  0.00    +0.000 C 
BRANCH  12  13
ATOM     13  C   UNL     1      96.447 106.974  91.106  0.00  0.00    +0.000 C 
BRANCH  13  14
ATOM     14  N   UNL     1      96.442 106.355  89.757  0.00  0.00    +0.000 NA
BRANCH  14  15
ATOM     15  C   UNL     1      97.590 105.436  89.654  0.00  0.00    +0.000 C 
BRANCH  15  17
ATOM     16  C   UNL     1      99.649 106.225  88.447  0.00  0.00    +0.000 C 
ATOM     17  C   UNL     1      98.443 105.642  88.431  0.00  0.00    +0.000 C 
ENDBRANCH  15  17
ENDBRANCH  14  15
BRANCH  14  18
ATOM     18  C   UNL     1      95.155 105.725  89.418  0.00  0.00    +0.000 C 
BRANCH  18  19
ATOM     19  C   UNL     1      95.227 104.275  89.026  0.00  0.00    +0.000 C 
ATOM     20  C   UNL     1      94.424 103.313  89.502  0.00  0.00    +0.000 C 
ENDBRANCH  18  19
ENDBRANCH  14  18
ENDBRANCH  13  14
ENDBRANCH  12  13
ENDBRANCH   1  12
TORSDOF 7
ENDMDL
MODEL 9
REMARK VINA RESULT:    -6.164      3.667      7.949
REMARK INTER + INTRA:          -9.404
REMARK INTER:                  -8.643
REMARK INTRA:                  -0.761
REMARK UNBOUND:                -0.718
REMARK  Name = 
REMARK  7 active torsions:
REMARK  status: ('A' for Active; 'I' for Inactive)
REMARK    1  A    between atoms: C_2  and  C_3
REMARK    2  A    between atoms: C_3  and  N_4
REMARK    3  A    between atoms: N_4  and  C_5
REMARK    4  A    between atoms: N_4  and  C_8
REMARK    5  A    between atoms: C_5  and  C_6
REMARK    6  A    between atoms: C_8  and  C_9
REMARK    7  A    between atoms: C_9  and  C_10
REMARK                            x       y       z     vdW  Elec       q    Type
REMARK                         _______ _______ _______ _____ _____    ______ ____
ROOT
ATOM      1  C   UNL     1      96.508 108.521  95.037  0.00  0.00    +0.000 A 
ATOM      2  C   UNL     1      95.309 109.207  94.967  0.00  0.00    +0.000 A 
ATOM      3  N   UNL     1      94.746 108.972  93.742  0.00  0.00    +0.000 N 
ATOM      4  C   UNL     1      95.555 108.141  93.002  0.00  0.00    +0.000 A 
ATOM      5  C   UNL     1      95.383 107.630  91.711  0.00  0.00    +0.000 A 
ATOM      6  C   UNL     1      96.387 106.799  91.217  0.00  0.00    +0.000 A 
ATOM      7  F   UNL     1      96.256 106.284  89.986  0.00  0.00    +0.000 F 
ATOM      8  C   UNL     1      97.515 106.485  91.963  0.00  0.00    +0.000 A 
ATOM      9  C   UNL     1      97.671 107.005  93.252  0.00  0.00    +0.000 A 
ATOM     10  C   UNL     1      96.672 107.847  93.787  0.00  0.00    +0.000 A 
ATOM     11  H   UNL     1      93.863 109.346  93.425  0.00  0.00    +0.000 HD
ENDROOT
BRANCH   1  12
ATOM     12  C   UNL     1      97.443 108.491  96.209  0.00  0.00    +0.000 C 
BRANCH  12  13
ATOM     13  C   UNL     1      97.635 109.887  96.832  0.00  0.00    +0.000 C 
BRANCH  13  14
ATOM     14  N   UNL     1      97.285 110.013  98.269  0.00  0.00    +0.000 NA
BRANCH  14  15
ATOM     15  C   UNL     1      96.930 111.416  98.548  0.00  0.00    +0.000 C 
BRANCH  15  17
ATOM     16  C   UNL     1      98.832 112.876  99.300  0.00  0.00    +0.000 C 
ATOM     17  C   UNL     1      97.793 112.080  99.586  0.00  0.00    +0.000 C 
ENDBRANCH  15  17
ENDBRANCH  14  15
BRANCH  14  18
ATOM     18  C   UNL     1      96.255 109.051  98.695  0.00  0.00    +0.000 C 
BRANCH  18  19
ATOM     19  C   UNL     1      94.904 109.640  98.994  0.00  0.00    +0.000 C 
ATOM     20  C   UNL     1      93.781 109.359  98.318  0.00  0.00    +0.000 C 
ENDBRANCH  18  19
ENDBRANCH  14  18
ENDBRANCH  13  14
ENDBRANCH  12  13
ENDBRANCH   1  12
TORSDOF 7
ENDMDL
