MODEL 1
REMARK VINA RESULT:    -6.898      0.000      0.000
REMARK INTER + INTRA:         -11.207
REMARK INTER:                 -10.125
REMARK INTRA:                  -1.083
REMARK UNBOUND:                -1.083
REMARK  Name = 
REMARK  10 active torsions:
REMARK  status: ('A' for Active; 'I' for Inactive)
REMARK    1  A    between atoms: C_2  and  C_3
REMARK    2  A    between atoms: C_3  and  N_4
REMARK    3  A    between atoms: N_4  and  C_5
REMARK    4  A    between atoms: N_4  and  C_8
REMARK    5  A    between atoms: C_5  and  C_6
REMARK    6  A    between atoms: C_8  and  C_9
REMARK    7  A    between atoms: C_9  and  C_10
REMARK    8  A    between atoms: C_14  and  O_15
REMARK    9  A    between atoms: O_15  and  C_16
REMARK   10  A    between atoms: C_20  and  C_21
REMARK                            x       y       z     vdW  Elec       q    Type
REMARK                         _______ _______ _______ _____ _____    ______ ____
ROOT
ATOM      1  C   UNL     1      97.097 106.355  94.416  0.00  0.00    +0.000 A 
ATOM      2  N   UNL     1      97.352 105.426  93.434  0.00  0.00    +0.000 N 
ATOM      3  C   UNL     1      97.548 106.042  92.224  0.00  0.00    +0.000 A 
ATOM      4  C   UNL     1      97.815 105.495  90.962  0.00  0.00    +0.000 A 
ATOM      5  C   UNL     1      97.961 106.372  89.879  0.00  0.00    +0.000 A 
ATOM      6  C   UNL     1      97.846 107.747  90.070  0.00  0.00    +0.000 A 
ATOM      7  C   UNL     1      97.584 108.277  91.340  0.00  0.00    +0.000 A 
ATOM      8  C   UNL     1      97.430 107.412  92.441  0.00  0.00    +0.000 A 
ATOM      9  C   UNL     1      97.156 107.610  93.832  0.00  0.00    +0.000 A 
ATOM     10  C   UNL     1      96.960 108.918  94.515  0.00  0.00    +0.000 C 
ATOM     11  H   UNL     1      97.357 104.424  93.594  0.00  0.00    +0.000 HD
ENDROOT
BRANCH   5  12
ATOM     12  O   UNL     1      98.216 105.755  88.681  0.00  0.00    +0.000 OA
ATOM     13  C   UNL     1      99.417 106.129  88.018  0.00  0.00    +0.000 C 
ENDBRANCH   5  12
BRANCH   1  14
ATOM     14  C   UNL     1      96.831 105.944  95.834  0.00  0.00    +0.000 C 
BRANCH  14  15
ATOM     15  C   UNL     1      97.523 104.628  96.256  0.00  0.00    +0.000 C 
BRANCH  15  16
ATOM     16  N   UNL     1      98.973 104.489  95.918  0.00  0.00    +0.000 NA
BRANCH  16  17
ATOM     17  C   UNL     1      99.788 105.122  96.975  0.00  0.00    +0.000 C 
BRANCH  17  19
ATOM     18  C   UNL     1      99.398 105.699  99.386  0.00  0.00    +0.000 C 
ATOM     19  C   UNL     1      99.333 104.821  98.376  0.00  0.00    +0.000 C 
ENDBRANCH  17  19
ENDBRANCH  16  17
BRANCH  16  20
ATOM     20  C   UNL     1      99.314 103.051  95.806  0.00  0.00    +0.000 C 
BRANCH  20  21
ATOM     21  C   UNL     1      98.397 102.301  94.878  0.00  0.00    +0.000 C 
ATOM     22  C   UNL     1      98.765 101.817  93.683  0.00  0.00    +0.000 C 
ENDBRANCH  20  21
ENDBRANCH  16  20
ENDBRANCH  15  16
ENDBRANCH  14  15
ENDBRANCH   1  14
TORSDOF 8
ENDMDL
MODEL 2
REMARK VINA RESULT:    -6.894      4.190      7.009
REMARK INTER + INTRA:         -11.201
REMARK INTER:                 -10.460
REMARK INTRA:                  -0.741
REMARK UNBOUND:                -1.083
REMARK  Name = 
REMARK  10 active torsions:
REMARK  status: ('A' for Active; 'I' for Inactive)
REMARK    1  A    between atoms: C_2  and  C_3
REMARK    2  A    between atoms: C_3  and  N_4
REMARK    3  A    between atoms: N_4  and  C_5
REMARK    4  A    between atoms: N_4  and  C_8
REMARK    5  A    between atoms: C_5  and  C_6
REMARK    6  A    between atoms: C_8  and  C_9
REMARK    7  A    between atoms: C_9  and  C_10
REMARK    8  A    between atoms: C_14  and  O_15
REMARK    9  A    between atoms: O_15  and  C_16
REMARK   10  A    between atoms: C_20  and  C_21
REMARK                            x       y       z     vdW  Elec       q    Type
REMARK                         _______ _______ _______ _____ _____    ______ ____
ROOT
ATOM      1  C   UNL     1      95.379 107.666  92.666  0.00  0.00    +0.000 A 
ATOM      2  N   UNL     1      94.625 108.644  93.271  0.00  0.00    +0.000 N 
ATOM      3  C   UNL     1      95.292 109.177  94.344  0.00  0.00    +0.000 A 
ATOM      4  C   UNL     1      94.903 110.172  95.250  0.00  0.00    +0.000 A 
ATOM      5  C   UNL     1      95.793 110.520  96.274  0.00  0.00    +0.000 A 
ATOM      6  C   UNL     1      97.030 109.886  96.372  0.00  0.00    +0.000 A 
ATOM      7  C   UNL     1      97.406 108.896  95.455  0.00  0.00    +0.000 A 
ATOM      8  C   UNL     1      96.523 108.530  94.420  0.00  0.00    +0.000 A 
ATOM      9  C   UNL     1      96.582 107.581  93.350  0.00  0.00    +0.000 A 
ATOM     10  C   UNL     1      97.718 106.670  93.041  0.00  0.00    +0.000 C 
ATOM     11  H   UNL     1      93.689 108.899  92.972  0.00  0.00    +0.000 HD
ENDROOT
BRANCH   5  12
ATOM     12  O   UNL     1      95.333 111.498  97.117  0.00  0.00    +0.000 OA
ATOM     13  C   UNL     1      95.345 112.828  96.614  0.00  0.00    +0.000 C 
ENDBRANCH   5  12
BRANCH   1  14
ATOM     14  C   UNL     1      94.874 106.910  91.474  0.00  0.00    +0.000 C 
BRANCH  14  15
ATOM     15  C   UNL     1      95.698 107.128  90.184  0.00  0.00    +0.000 C 
BRANCH  15  16
ATOM     16  N   UNL     1      95.884 105.941  89.294  0.00  0.00    +0.000 NA
BRANCH  16  17
ATOM     17  C   UNL     1      96.906 105.046  89.872  0.00  0.00    +0.000 C 
BRANCH  17  19
ATOM     18  C   UNL     1      98.731 105.794  88.320  0.00  0.00    +0.000 C 
ATOM     19  C   UNL     1      98.323 105.424  89.541  0.00  0.00    +0.000 C 
ENDBRANCH  17  19
ENDBRANCH  16  17
BRANCH  16  20
ATOM     20  C   UNL     1      94.594 105.222  89.161  0.00  0.00    +0.000 C 
BRANCH  20  21
ATOM     21  C   UNL     1      94.742 103.728  89.259  0.00  0.00    +0.000 C 
ATOM     22  C   UNL     1      93.713 102.870  89.319  0.00  0.00    +0.000 C 
ENDBRANCH  20  21
ENDBRANCH  16  20
ENDBRANCH  15  16
ENDBRANCH  14  15
ENDBRANCH   1  14
TORSDOF 8
ENDMDL
MODEL 3
REMARK VINA RESULT:    -6.812      2.706      6.495
REMARK INTER + INTRA:         -11.081
REMARK INTER:                 -10.150
REMARK INTRA:                  -0.931
REMARK UNBOUND:                -1.083
REMARK  Name = 
REMARK  10 active torsions:
REMARK  status: ('A' for Active; 'I' for Inactive)
REMARK    1  A    between atoms: C_2  and  C_3
REMARK    2  A    between atoms: C_3  and  N_4
REMARK    3  A    between atoms: N_4  and  C_5
REMARK    4  A    between atoms: N_4  and  C_8
REMARK    5  A    between atoms: C_5  and  C_6
REMARK    6  A    between atoms: C_8  and  C_9
REMARK    7  A    between atoms: C_9  and  C_10
REMARK    8  A    between atoms: C_14  and  O_15
REMARK    9  A    between atoms: O_15  and  C_16
REMARK   10  A    between atoms: C_20  and  C_21
REMARK                            x       y       z     vdW  Elec       q    Type
REMARK                         _______ _______ _______ _____ _____    ______ ____
ROOT
ATOM      1  C   UNL     1      96.573 107.370  92.743  0.00  0.00    +0.000 A 
ATOM      2  N   UNL     1      96.918 106.050  92.915  0.00  0.00    +0.000 N 
ATOM      3  C   UNL     1      97.618 105.880  94.083  0.00  0.00    +0.000 A 
ATOM      4  C   UNL     1      98.176 104.724  94.645  0.00  0.00    +0.000 A 
ATOM      5  C   UNL     1      98.859 104.844  95.863  0.00  0.00    +0.000 A 
ATOM      6  C   UNL     1      98.967 106.086  96.486  0.00  0.00    +0.000 A 
ATOM      7  C   UNL     1      98.398 107.231  95.912  0.00  0.00    +0.000 A 
ATOM      8  C   UNL     1      97.711 107.131  94.687  0.00  0.00    +0.000 A 
ATOM      9  C   UNL     1      97.039 108.073  93.843  0.00  0.00    +0.000 A 
ATOM     10  C   UNL     1      96.883 109.530  94.097  0.00  0.00    +0.000 C 
ATOM     11  H   UNL     1      96.705 105.319  92.244  0.00  0.00    +0.000 HD
ENDROOT
BRANCH   5  12
ATOM     12  O   UNL     1      99.376 103.668  96.341  0.00  0.00    +0.000 OA
ATOM     13  C   UNL     1      99.617 103.603  97.741  0.00  0.00    +0.000 C 
ENDBRANCH   5  12
BRANCH   1  14
ATOM     14  C   UNL     1      95.813 107.830  91.535  0.00  0.00    +0.000 C 
BRANCH  14  15
ATOM     15  C   UNL     1      96.269 107.181  90.209  0.00  0.00    +0.000 C 
BRANCH  15  16
ATOM     16  N   UNL     1      96.120 105.697  90.098  0.00  0.00    +0.000 NA
BRANCH  16  17
ATOM     17  C   UNL     1      94.801 105.376  89.517  0.00  0.00    +0.000 C 
BRANCH  17  19
ATOM     18  C   UNL     1      94.115 102.971  89.304  0.00  0.00    +0.000 C 
ATOM     19  C   UNL     1      94.738 104.050  88.811  0.00  0.00    +0.000 C 
ENDBRANCH  17  19
ENDBRANCH  16  17
BRANCH  16  20
ATOM     20  C   UNL     1      97.200 105.159  89.236  0.00  0.00    +0.000 C 
BRANCH  20  21
ATOM     21  C   UNL     1      98.473 105.957  89.323  0.00  0.00    +0.000 C 
ATOM     22  C   UNL     1      99.380 106.039  88.339  0.00  0.00    +0.000 C 
ENDBRANCH  20  21
ENDBRANCH  16  20
ENDBRANCH  15  16
ENDBRANCH  14  15
ENDBRANCH   1  14
TORSDOF 8
ENDMDL
MODEL 4
REMARK VINA RESULT:    -6.625      3.664      5.960
REMARK INTER + INTRA:         -10.806
REMARK INTER:                  -9.826
REMARK INTRA:                  -0.981
REMARK UNBOUND:                -1.083
REMARK  Name = 
REMARK  10 active torsions:
REMARK  status: ('A' for Active; 'I' for Inactive)
REMARK    1  A    between atoms: C_2  and  C_3
REMARK    2  A    between atoms: C_3  and  N_4
REMARK    3  A    between atoms: N_4  and  C_5
REMARK    4  A    between atoms: N_4  and  C_8
REMARK    5  A    between atoms: C_5  and  C_6
REMARK    6  A    between atoms: C_8  and  C_9
REMARK    7  A    between atoms: C_9  and  C_10
REMARK    8  A    between atoms: C_14  and  O_15
REMARK    9  A    between atoms: O_15  and  C_16
REMARK   10  A    between atoms: C_20  and  C_21
REMARK                            x       y       z     vdW  Elec       q    Type
REMARK                         _______ _______ _______ _____ _____    ______ ____
ROOT
ATOM      1  C   UNL     1      95.292 109.373  94.737  0.00  0.00    +0.000 A 
ATOM      2  N   UNL     1      94.664 108.919  93.601  0.00  0.00    +0.000 N 
ATOM      3  C   UNL     1      95.506 108.124  92.866  0.00  0.00    +0.000 A 
ATOM      4  C   UNL     1      95.297 107.469  91.645  0.00  0.00    +0.000 A 
ATOM      5  C   UNL     1      96.352 106.720  91.108  0.00  0.00    +0.000 A 
ATOM      6  C   UNL     1      97.567 106.635  91.785  0.00  0.00    +0.000 A 
ATOM      7  C   UNL     1      97.756 107.291  93.008  0.00  0.00    +0.000 A 
ATOM      8  C   UNL     1      96.709 108.052  93.562  0.00  0.00    +0.000 A 
ATOM      9  C   UNL     1      96.569 108.835  94.754  0.00  0.00    +0.000 A 
ATOM     10  C   UNL     1      97.606 109.038  95.801  0.00  0.00    +0.000 C 
ATOM     11  H   UNL     1      93.717 109.175  93.340  0.00  0.00    +0.000 HD
ENDROOT
BRANCH   5  12
ATOM     12  O   UNL     1      96.067 106.116  89.911  0.00  0.00    +0.000 OA
ATOM     13  C   UNL     1      97.108 105.345  89.323  0.00  0.00    +0.000 C 
ENDBRANCH   5  12
BRANCH   1  14
ATOM     14  C   UNL     1      94.596 110.277  95.711  0.00  0.00    +0.000 C 
BRANCH  14  15
ATOM     15  C   UNL     1      95.010 111.762  95.610  0.00  0.00    +0.000 C 
BRANCH  15  16
ATOM     16  N   UNL     1      95.676 112.360  96.808  0.00  0.00    +0.000 NA
BRANCH  16  17
ATOM     17  C   UNL     1      95.676 111.379  97.912  0.00  0.00    +0.000 C 
BRANCH  17  19
ATOM     18  C   UNL     1      96.622 111.358 100.236  0.00  0.00    +0.000 C 
ATOM     19  C   UNL     1      95.924 111.972  99.271  0.00  0.00    +0.000 C 
ENDBRANCH  17  19
ENDBRANCH  16  17
BRANCH  16  20
ATOM     20  C   UNL     1      97.068 112.733  96.460  0.00  0.00    +0.000 C 
BRANCH  20  21
ATOM     21  C   UNL     1      97.350 112.639  94.985  0.00  0.00    +0.000 C 
ATOM     22  C   UNL     1      98.083 113.527  94.299  0.00  0.00    +0.000 C 
ENDBRANCH  20  21
ENDBRANCH  16  20
ENDBRANCH  15  16
ENDBRANCH  14  15
ENDBRANCH   1  14
TORSDOF 8
ENDMDL
MODEL 5
REMARK VINA RESULT:    -6.544      0.853      2.575
REMARK INTER + INTRA:         -10.687
REMARK INTER:                  -9.884
REMARK INTRA:                  -0.803
REMARK UNBOUND:                -1.083
REMARK  Name = 
REMARK  10 active torsions:
REMARK  status: ('A' for Active; 'I' for Inactive)
REMARK    1  A    between atoms: C_2  and  C_3
REMARK    2  A    between atoms: C_3  and  N_4
REMARK    3  A    between atoms: N_4  and  C_5
REMARK    4  A    between atoms: N_4  and  C_8
REMARK    5  A    between atoms: C_5  and  C_6
REMARK    6  A    between atoms: C_8  and  C_9
REMARK    7  A    between atoms: C_9  and  C_10
REMARK    8  A    between atoms: C_14  and  O_15
REMARK    9  A    between atoms: O_15  and  C_16
REMARK   10  A    between atoms: C_20  and  C_21
REMARK                            x       y       z     vdW  Elec       q    Type
REMARK                         _______ _______ _______ _____ _____    ______ ____
ROOT
ATOM      1  C   UNL     1      97.247 106.190  94.525  0.00  0.00    +0.000 A 
ATOM      2  N   UNL     1      97.441 105.334  93.467  0.00  0.00    +0.000 N 
ATOM      3  C   UNL     1      97.550 106.033  92.291  0.00  0.00    +0.000 A 
ATOM      4  C   UNL     1      97.734 105.576  90.979  0.00  0.00    +0.000 A 
ATOM      5  C   UNL     1      97.801 106.525  89.951  0.00  0.00    +0.000 A 
ATOM      6  C   UNL     1      97.690 107.883  90.244  0.00  0.00    +0.000 A 
ATOM      7  C   UNL     1      97.512 108.323  91.562  0.00  0.00    +0.000 A 
ATOM      8  C   UNL     1      97.439 107.383  92.609  0.00  0.00    +0.000 A 
ATOM      9  C   UNL     1      97.258 107.483  94.026  0.00  0.00    +0.000 A 
ATOM     10  C   UNL     1      97.101 108.739  94.808  0.00  0.00    +0.000 C 
ATOM     11  H   UNL     1      97.464 104.323  93.556  0.00  0.00    +0.000 HD
ENDROOT
BRANCH   5  12
ATOM     12  O   UNL     1      97.978 105.995  88.700  0.00  0.00    +0.000 OA
ATOM     13  C   UNL     1      99.300 106.025  88.178  0.00  0.00    +0.000 C 
ENDBRANCH   5  12
BRANCH   1  14
ATOM     14  C   UNL     1      97.082 105.681  95.926  0.00  0.00    +0.000 C 
BRANCH  14  15
ATOM     15  C   UNL     1      98.407 105.324  96.635  0.00  0.00    +0.000 C 
BRANCH  15  16
ATOM     16  N   UNL     1      98.549 103.921  97.135  0.00  0.00    +0.000 NA
BRANCH  16  17
ATOM     17  C   UNL     1      97.962 102.988  96.153  0.00  0.00    +0.000 C 
BRANCH  17  19
ATOM     18  C   UNL     1      98.553 101.800  94.023  0.00  0.00    +0.000 C 
ATOM     19  C   UNL     1      98.921 102.509  95.099  0.00  0.00    +0.000 C 
ENDBRANCH  17  19
ENDBRANCH  16  17
BRANCH  16  20
ATOM     20  C   UNL     1      99.986 103.615  97.333  0.00  0.00    +0.000 C 
BRANCH  20  21
ATOM     21  C   UNL     1     100.392 103.614  98.781  0.00  0.00    +0.000 C 
ATOM     22  C   UNL     1      99.530 103.671  99.806  0.00  0.00    +0.000 C 
ENDBRANCH  20  21
ENDBRANCH  16  20
ENDBRANCH  15  16
ENDBRANCH  14  15
ENDBRANCH   1  14
TORSDOF 8
ENDMDL
MODEL 6
REMARK VINA RESULT:    -6.466      3.913      6.982
REMARK INTER + INTRA:         -10.573
REMARK INTER:                  -9.375
REMARK INTRA:                  -1.197
REMARK UNBOUND:                -1.083
REMARK  Name = 
REMARK  10 active torsions:
REMARK  status: ('A' for Active; 'I' for Inactive)
REMARK    1  A    between atoms: C_2  and  C_3
REMARK    2  A    between atoms: C_3  and  N_4
REMARK    3  A    between atoms: N_4  and  C_5
REMARK    4  A    between atoms: N_4  and  C_8
REMARK    5  A    between atoms: C_5  and  C_6
REMARK    6  A    between atoms: C_8  and  C_9
REMARK    7  A    between atoms: C_9  and  C_10
REMARK    8  A    between atoms: C_14  and  O_15
REMARK    9  A    between atoms: O_15  and  C_16
REMARK   10  A    between atoms: C_20  and  C_21
REMARK                            x       y       z     vdW  Elec       q    Type
REMARK                         _______ _______ _______ _____ _____    ______ ____
ROOT
ATOM      1  C   UNL     1      95.333 109.312  94.812  0.00  0.00    +0.000 A 
ATOM      2  N   UNL     1      94.696 108.933  93.653  0.00  0.00    +0.000 N 
ATOM      3  C   UNL     1      95.514 108.141  92.888  0.00  0.00    +0.000 A 
ATOM      4  C   UNL     1      95.291 107.550  91.637  0.00  0.00    +0.000 A 
ATOM      5  C   UNL     1      96.321 106.787  91.073  0.00  0.00    +0.000 A 
ATOM      6  C   UNL     1      97.527 106.626  91.752  0.00  0.00    +0.000 A 
ATOM      7  C   UNL     1      97.731 107.219  93.005  0.00  0.00    +0.000 A 
ATOM      8  C   UNL     1      96.708 107.993  93.587  0.00  0.00    +0.000 A 
ATOM      9  C   UNL     1      96.589 108.726  94.811  0.00  0.00    +0.000 A 
ATOM     10  C   UNL     1      97.624 108.844  95.873  0.00  0.00    +0.000 C 
ATOM     11  H   UNL     1      93.762 109.236  93.398  0.00  0.00    +0.000 HD
ENDROOT
BRANCH   5  12
ATOM     12  O   UNL     1      96.022 106.248  89.848  0.00  0.00    +0.000 OA
ATOM     13  C   UNL     1      94.654 105.947  89.603  0.00  0.00    +0.000 C 
ENDBRANCH   5  12
BRANCH   1  14
ATOM     14  C   UNL     1      94.663 110.196  95.821  0.00  0.00    +0.000 C 
BRANCH  14  15
ATOM     15  C   UNL     1      93.952 111.429  95.217  0.00  0.00    +0.000 C 
BRANCH  15  16
ATOM     16  N   UNL     1      94.770 112.672  95.064  0.00  0.00    +0.000 NA
BRANCH  16  17
ATOM     17  C   UNL     1      93.877 113.846  95.017  0.00  0.00    +0.000 C 
BRANCH  17  19
ATOM     18  C   UNL     1      95.063 115.771  93.929  0.00  0.00    +0.000 C 
ATOM     19  C   UNL     1      94.151 114.791  93.880  0.00  0.00    +0.000 C 
ENDBRANCH  17  19
ENDBRANCH  16  17
BRANCH  16  20
ATOM     20  C   UNL     1      95.704 112.788  96.209  0.00  0.00    +0.000 C 
BRANCH  20  21
ATOM     21  C   UNL     1      97.139 112.939  95.784  0.00  0.00    +0.000 C 
ATOM     22  C   UNL     1      97.610 112.586  94.580  0.00  0.00    +0.000 C 
ENDBRANCH  20  21
ENDBRANCH  16  20
ENDBRANCH  15  16
ENDBRANCH  14  15
ENDBRANCH   1  14
TORSDOF 8
ENDMDL
MODEL 7
REMARK VINA RESULT:    -6.466      3.743      6.309
REMARK INTER + INTRA:         -10.572
REMARK INTER:                  -9.684
REMARK INTRA:                  -0.888
REMARK UNBOUND:                -1.083
REMARK  Name = 
REMARK  10 active torsions:
REMARK  status: ('A' for Active; 'I' for Inactive)
REMARK    1  A    between atoms: C_2  and  C_3
REMARK    2  A    between atoms: C_3  and  N_4
REMARK    3  A    between atoms: N_4  and  C_5
REMARK    4  A    between atoms: N_4  and  C_8
REMARK    5  A    between atoms: C_5  and  C_6
REMARK    6  A    between atoms: C_8  and  C_9
REMARK    7  A    between atoms: C_9  and  C_10
REMARK    8  A    between atoms: C_14  and  O_15
REMARK    9  A    between atoms: O_15  and  C_16
REMARK   10  A    between atoms: C_20  and  C_21
REMARK                            x       y       z     vdW  Elec       q    Type
REMARK                         _______ _______ _______ _____ _____    ______ ____
ROOT
ATOM      1  C   UNL     1      95.292 109.370  94.735  0.00  0.00    +0.000 A 
ATOM      2  N   UNL     1      94.643 108.956  93.596  0.00  0.00    +0.000 N 
ATOM      3  C   UNL     1      95.459 108.156  92.837  0.00  0.00    +0.000 A 
ATOM      4  C   UNL     1      95.224 107.533  91.604  0.00  0.00    +0.000 A 
ATOM      5  C   UNL     1      96.255 106.770  91.041  0.00  0.00    +0.000 A 
ATOM      6  C   UNL     1      97.474 106.640  91.705  0.00  0.00    +0.000 A 
ATOM      7  C   UNL     1      97.689 107.266  92.940  0.00  0.00    +0.000 A 
ATOM      8  C   UNL     1      96.666 108.040  93.520  0.00  0.00    +0.000 A 
ATOM      9  C   UNL     1      96.556 108.801  94.729  0.00  0.00    +0.000 A 
ATOM     10  C   UNL     1      97.606 108.956  95.771  0.00  0.00    +0.000 C 
ATOM     11  H   UNL     1      93.701 109.241  93.349  0.00  0.00    +0.000 HD
ENDROOT
BRANCH   5  12
ATOM     12  O   UNL     1      95.945 106.199  89.834  0.00  0.00    +0.000 OA
ATOM     13  C   UNL     1      94.563 105.989  89.567  0.00  0.00    +0.000 C 
ENDBRANCH   5  12
BRANCH   1  14
ATOM     14  C   UNL     1      94.627 110.270  95.734  0.00  0.00    +0.000 C 
BRANCH  14  15
ATOM     15  C   UNL     1      95.160 111.721  95.739  0.00  0.00    +0.000 C 
BRANCH  15  16
ATOM     16  N   UNL     1      96.144 112.074  96.808  0.00  0.00    +0.000 NA
BRANCH  16  17
ATOM     17  C   UNL     1      96.954 113.228  96.370  0.00  0.00    +0.000 C 
BRANCH  17  19
ATOM     18  C   UNL     1      98.196 113.627  94.226  0.00  0.00    +0.000 C 
ATOM     19  C   UNL     1      97.050 113.391  94.879  0.00  0.00    +0.000 C 
ENDBRANCH  17  19
ENDBRANCH  16  17
BRANCH  16  20
ATOM     20  C   UNL     1      95.414 112.409  98.054  0.00  0.00    +0.000 C 
BRANCH  20  21
ATOM     21  C   UNL     1      95.820 111.552  99.222  0.00  0.00    +0.000 C 
ATOM     22  C   UNL     1      95.724 110.215  99.245  0.00  0.00    +0.000 C 
ENDBRANCH  20  21
ENDBRANCH  16  20
ENDBRANCH  15  16
ENDBRANCH  14  15
ENDBRANCH   1  14
TORSDOF 8
ENDMDL
MODEL 8
REMARK VINA RESULT:    -6.400      2.718      6.456
REMARK INTER + INTRA:         -10.476
REMARK INTER:                  -9.780
REMARK INTRA:                  -0.696
REMARK UNBOUND:                -1.083
REMARK  Name = 
REMARK  10 active torsions:
REMARK  status: ('A' for Active; 'I' for Inactive)
REMARK    1  A    between atoms: C_2  and  C_3
REMARK    2  A    between atoms: C_3  and  N_4
REMARK    3  A    between atoms: N_4  and  C_5
REMARK    4  A    between atoms: N_4  and  C_8
REMARK    5  A    between atoms: C_5  and  C_6
REMARK    6  A    between atoms: C_8  and  C_9
REMARK    7  A    between atoms: C_9  and  C_10
REMARK    8  A    between atoms: C_14  and  O_15
REMARK    9  A    between atoms: O_15  and  C_16
REMARK   10  A    between atoms: C_20  and  C_21
REMARK                            x       y       z     vdW  Elec       q    Type
REMARK                         _______ _______ _______ _____ _____    ______ ____
ROOT
ATOM      1  C   UNL     1      96.828 106.993  93.341  0.00  0.00    +0.000 A 
ATOM      2  N   UNL     1      97.237 105.723  93.671  0.00  0.00    +0.000 N 
ATOM      3  C   UNL     1      97.924 105.728  94.858  0.00  0.00    +0.000 A 
ATOM      4  C   UNL     1      98.531 104.677  95.559  0.00  0.00    +0.000 A 
ATOM      5  C   UNL     1      99.185 104.974  96.762  0.00  0.00    +0.000 A 
ATOM      6  C   UNL     1      99.218 106.284  97.236  0.00  0.00    +0.000 A 
ATOM      7  C   UNL     1      98.601 107.322  96.525  0.00  0.00    +0.000 A 
ATOM      8  C   UNL     1      97.942 107.044  95.312  0.00  0.00    +0.000 A 
ATOM      9  C   UNL     1      97.237 107.843  94.356  0.00  0.00    +0.000 A 
ATOM     10  C   UNL     1      97.002 109.310  94.436  0.00  0.00    +0.000 C 
ATOM     11  H   UNL     1      97.074 104.908  93.087  0.00  0.00    +0.000 HD
ENDROOT
BRANCH   5  12
ATOM     12  O   UNL     1      99.753 103.892  97.381  0.00  0.00    +0.000 OA
ATOM     13  C   UNL     1     101.126 103.648  97.101  0.00  0.00    +0.000 C 
ENDBRANCH   5  12
BRANCH   1  14
ATOM     14  C   UNL     1      96.067 107.269  92.078  0.00  0.00    +0.000 C 
BRANCH  14  15
ATOM     15  C   UNL     1      96.956 107.505  90.836  0.00  0.00    +0.000 C 
BRANCH  15  16
ATOM     16  N   UNL     1      96.743 106.592  89.671  0.00  0.00    +0.000 NA
BRANCH  16  17
ATOM     17  C   UNL     1      97.784 105.545  89.669  0.00  0.00    +0.000 C 
BRANCH  17  19
ATOM     18  C   UNL     1      99.657 106.745  88.506  0.00  0.00    +0.000 C 
ATOM     19  C   UNL     1      98.821 105.701  88.591  0.00  0.00    +0.000 C 
ENDBRANCH  17  19
ENDBRANCH  16  17
BRANCH  16  20
ATOM     20  C   UNL     1      95.399 105.973  89.772  0.00  0.00    +0.000 C 
BRANCH  20  21
ATOM     21  C   UNL     1      95.290 104.679  89.013  0.00  0.00    +0.000 C 
ATOM     22  C   UNL     1      94.501 103.657  89.374  0.00  0.00    +0.000 C 
ENDBRANCH  20  21
ENDBRANCH  16  20
ENDBRANCH  15  16
ENDBRANCH  14  15
ENDBRANCH   1  14
TORSDOF 8
ENDMDL
MODEL 9
REMARK VINA RESULT:    -6.286      4.380      7.546
REMARK INTER + INTRA:         -10.308
REMARK INTER:                  -9.495
REMARK INTRA:                  -0.813
REMARK UNBOUND:                -1.083
REMARK  Name = 
REMARK  10 active torsions:
REMARK  status: ('A' for Active; 'I' for Inactive)
REMARK    1  A    between atoms: C_2  and  C_3
REMARK    2  A    between atoms: C_3  and  N_4
REMARK    3  A    between atoms: N_4  and  C_5
REMARK    4  A    between atoms: N_4  and  C_8
REMARK    5  A    between atoms: C_5  and  C_6
REMARK    6  A    between atoms: C_8  and  C_9
REMARK    7  A    between atoms: C_9  and  C_10
REMARK    8  A    between atoms: C_14  and  O_15
REMARK    9  A    between atoms: O_15  and  C_16
REMARK   10  A    between atoms: C_20  and  C_21
REMARK                            x       y       z     vdW  Elec       q    Type
REMARK                         _______ _______ _______ _____ _____    ______ ____
ROOT
ATOM      1  C   UNL     1      95.118 109.986  95.045  0.00  0.00    +0.000 A 
ATOM      2  N   UNL     1      94.554 109.357  93.960  0.00  0.00    +0.000 N 
ATOM      3  C   UNL     1      95.422 108.437  93.429  0.00  0.00    +0.000 A 
ATOM      4  C   UNL     1      95.278 107.589  92.322  0.00  0.00    +0.000 A 
ATOM      5  C   UNL     1      96.346 106.745  91.992  0.00  0.00    +0.000 A 
ATOM      6  C   UNL     1      97.511 106.757  92.758  0.00  0.00    +0.000 A 
ATOM      7  C   UNL     1      97.635 107.607  93.864  0.00  0.00    +0.000 A 
ATOM      8  C   UNL     1      96.574 108.466  94.209  0.00  0.00    +0.000 A 
ATOM      9  C   UNL     1      96.376 109.440  95.240  0.00  0.00    +0.000 A 
ATOM     10  C   UNL     1      97.346 109.802  96.309  0.00  0.00    +0.000 C 
ATOM     11  H   UNL     1      93.634 109.580  93.594  0.00  0.00    +0.000 HD
ENDROOT
BRANCH   5  12
ATOM     12  O   UNL     1      96.125 105.953  90.896  0.00  0.00    +0.000 OA
ATOM     13  C   UNL     1      95.273 106.485  89.889  0.00  0.00    +0.000 C 
ENDBRANCH   5  12
BRANCH   1  14
ATOM     14  C   UNL     1      94.383 111.052  95.803  0.00  0.00    +0.000 C 
BRANCH  14  15
ATOM     15  C   UNL     1      94.315 112.417  95.081  0.00  0.00    +0.000 C 
BRANCH  15  16
ATOM     16  N   UNL     1      95.219 113.494  95.590  0.00  0.00    +0.000 NA
BRANCH  16  17
ATOM     17  C   UNL     1      96.143 113.909  94.516  0.00  0.00    +0.000 C 
BRANCH  17  19
ATOM     18  C   UNL     1      98.651 113.878  94.614  0.00  0.00    +0.000 C 
ATOM     19  C   UNL     1      97.482 113.226  94.549  0.00  0.00    +0.000 C 
ENDBRANCH  17  19
ENDBRANCH  16  17
BRANCH  16  20
ATOM     20  C   UNL     1      94.402 114.649  96.033  0.00  0.00    +0.000 C 
BRANCH  20  21
ATOM     21  C   UNL     1      93.207 114.896  95.153  0.00  0.00    +0.000 C 
ATOM     22  C   UNL     1      92.582 116.076  95.043  0.00  0.00    +0.000 C 
ENDBRANCH  20  21
ENDBRANCH  16  20
ENDBRANCH  15  16
ENDBRANCH  14  15
ENDBRANCH   1  14
TORSDOF 8
ENDMDL
