MODEL 1
REMARK VINA RESULT:    -6.414      0.000      0.000
REMARK INTER + INTRA:          -7.749
REMARK INTER:                  -7.539
REMARK INTRA:                  -0.210
REMARK UNBOUND:                -0.210
REMARK  Name = 
REMARK  6 active torsions:
REMARK  status: ('A' for Active; 'I' for Inactive)
REMARK    1  A    between atoms: C_1  and  N_2
REMARK    2  A    between atoms: N_2  and  C_3
REMARK    3  A    between atoms: N_2  and  C_4
REMARK    4  A    between atoms: C_4  and  C_5
REMARK    5  A    between atoms: C_5  and  C_6
REMARK    6  A    between atoms: C_11  and  C_12
REMARK                            x       y       z     vdW  Elec       q    Type
REMARK                         _______ _______ _______ _____ _____    ______ ____
ROOT
ATOM      1  C   UNL     1      97.073 107.909  93.354  0.00  0.00    +0.000 A 
ATOM      2  C   UNL     1      96.873 106.696  93.987  0.00  0.00    +0.000 A 
ATOM      3  N   UNL     1      97.181 105.699  93.105  0.00  0.00    +0.000 N 
ATOM      4  C   UNL     1      97.572 106.231  91.899  0.00  0.00    +0.000 A 
ATOM      5  C   UNL     1      97.937 105.593  90.706  0.00  0.00    +0.000 A 
ATOM      6  C   UNL     1      98.291 106.400  89.613  0.00  0.00    +0.000 A 
ATOM      7  C   UNL     1      98.656 105.778  88.296  0.00  0.00    +0.000 C 
ATOM      8  C   UNL     1      98.298 107.792  89.740  0.00  0.00    +0.000 A 
ATOM      9  C   UNL     1      97.929 108.411  90.939  0.00  0.00    +0.000 A 
ATOM     10  C   UNL     1      97.545 107.617  92.037  0.00  0.00    +0.000 A 
ATOM     11  H   UNL     1      97.114 104.707  93.298  0.00  0.00    +0.000 HD
ENDROOT
BRANCH   1  12
ATOM     12  C   UNL     1      96.802 109.267  93.924  0.00  0.00    +0.000 C 
BRANCH  12  13
ATOM     13  C   UNL     1      95.434 109.309  94.632  0.00  0.00    +0.000 C 
BRANCH  13  15
ATOM     14  C   UNL     1      96.780 109.863  96.544  0.00  0.00    +0.000 C 
ATOM     15  N   UNL     1      95.492 109.311  96.109  0.00  0.00    +0.000 NA
ATOM     16  C   UNL     1      94.401 110.086  96.701  0.00  0.00    +0.000 C 
ENDBRANCH  13  15
ENDBRANCH  12  13
ENDBRANCH   1  12
TORSDOF 3
ENDMDL
MODEL 2
REMARK VINA RESULT:    -5.912      7.054      9.128
REMARK INTER + INTRA:          -7.159
REMARK INTER:                  -6.852
REMARK INTRA:                  -0.307
REMARK UNBOUND:                -0.210
REMARK  Name = 
REMARK  6 active torsions:
REMARK  status: ('A' for Active; 'I' for Inactive)
REMARK    1  A    between atoms: C_1  and  N_2
REMARK    2  A    between atoms: N_2  and  C_3
REMARK    3  A    between atoms: N_2  and  C_4
REMARK    4  A    between atoms: C_4  and  C_5
REMARK    5  A    between atoms: C_5  and  C_6
REMARK    6  A    between atoms: C_11  and  C_12
REMARK                            x       y       z     vdW  Elec       q    Type
REMARK                         _______ _______ _______ _____ _____    ______ ____
ROOT
ATOM      1  C   UNL     1      99.633 104.641  97.973  0.00  0.00    +0.000 A 
ATOM      2  C   UNL     1      99.790 103.565  97.119  0.00  0.00    +0.000 A 
ATOM      3  N   UNL     1      99.833 102.425  97.871  0.00  0.00    +0.000 N 
ATOM      4  C   UNL     1      99.717 102.729  99.207  0.00  0.00    +0.000 A 
ATOM      5  C   UNL     1      99.750 101.892 100.330  0.00  0.00    +0.000 A 
ATOM      6  C   UNL     1      99.609 102.485 101.594  0.00  0.00    +0.000 A 
ATOM      7  C   UNL     1      99.672 101.647 102.838  0.00  0.00    +0.000 C 
ATOM      8  C   UNL     1      99.419 103.865 101.706  0.00  0.00    +0.000 A 
ATOM      9  C   UNL     1      99.392 104.686 100.573  0.00  0.00    +0.000 A 
ATOM     10  C   UNL     1      99.558 104.110  99.299  0.00  0.00    +0.000 A 
ATOM     11  H   UNL     1      99.954 101.489  97.506  0.00  0.00    +0.000 HD
ENDROOT
BRANCH   1  12
ATOM     12  C   UNL     1      99.598 106.087  97.589  0.00  0.00    +0.000 C 
BRANCH  12  13
ATOM     13  C   UNL     1     100.956 106.544  97.020  0.00  0.00    +0.000 C 
BRANCH  13  15
ATOM     14  C   UNL     1     100.912 108.000  98.931  0.00  0.00    +0.000 C 
ATOM     15  N   UNL     1     101.781 107.354  97.942  0.00  0.00    +0.000 NA
ATOM     16  C   UNL     1     102.791 106.547  98.628  0.00  0.00    +0.000 C 
ENDBRANCH  13  15
ENDBRANCH  12  13
ENDBRANCH   1  12
TORSDOF 3
ENDMDL
MODEL 3
REMARK VINA RESULT:    -5.889      2.091      3.107
REMARK INTER + INTRA:          -7.132
REMARK INTER:                  -6.899
REMARK INTRA:                  -0.233
REMARK UNBOUND:                -0.210
REMARK  Name = 
REMARK  6 active torsions:
REMARK  status: ('A' for Active; 'I' for Inactive)
REMARK    1  A    between atoms: C_1  and  N_2
REMARK    2  A    between atoms: N_2  and  C_3
REMARK    3  A    between atoms: N_2  and  C_4
REMARK    4  A    between atoms: C_4  and  C_5
REMARK    5  A    between atoms: C_5  and  C_6
REMARK    6  A    between atoms: C_11  and  C_12
REMARK                            x       y       z     vdW  Elec       q    Type
REMARK                         _______ _______ _______ _____ _____    ______ ____
ROOT
ATOM      1  C   UNL     1      96.966 107.265  92.941  0.00  0.00    +0.000 A 
ATOM      2  C   UNL     1      97.115 108.637  92.859  0.00  0.00    +0.000 A 
ATOM      3  N   UNL     1      97.674 108.934  91.648  0.00  0.00    +0.000 N 
ATOM      4  C   UNL     1      97.905 107.783  90.933  0.00  0.00    +0.000 A 
ATOM      5  C   UNL     1      98.493 107.604  89.674  0.00  0.00    +0.000 A 
ATOM      6  C   UNL     1      98.607 106.294  89.183  0.00  0.00    +0.000 A 
ATOM      7  C   UNL     1      99.260 106.033  87.857  0.00  0.00    +0.000 C 
ATOM      8  C   UNL     1      98.121 105.218  89.932  0.00  0.00    +0.000 A 
ATOM      9  C   UNL     1      97.539 105.416  91.189  0.00  0.00    +0.000 A 
ATOM     10  C   UNL     1      97.441 106.721  91.707  0.00  0.00    +0.000 A 
ATOM     11  H   UNL     1      97.907 109.865  91.324  0.00  0.00    +0.000 HD
ENDROOT
BRANCH   1  12
ATOM     12  C   UNL     1      96.452 106.493  94.116  0.00  0.00    +0.000 C 
BRANCH  12  13
ATOM     13  C   UNL     1      97.047 107.024  95.434  0.00  0.00    +0.000 C 
BRANCH  13  15
ATOM     14  C   UNL     1      97.716 104.731  95.696  0.00  0.00    +0.000 C 
ATOM     15  N   UNL     1      97.995 106.111  96.107  0.00  0.00    +0.000 NA
ATOM     16  C   UNL     1      99.388 106.442  95.801  0.00  0.00    +0.000 C 
ENDBRANCH  13  15
ENDBRANCH  12  13
ENDBRANCH   1  12
TORSDOF 3
ENDMDL
MODEL 4
REMARK VINA RESULT:    -5.716      6.584      9.448
REMARK INTER + INTRA:          -6.929
REMARK INTER:                  -6.674
REMARK INTRA:                  -0.255
REMARK UNBOUND:                -0.210
REMARK  Name = 
REMARK  6 active torsions:
REMARK  status: ('A' for Active; 'I' for Inactive)
REMARK    1  A    between atoms: C_1  and  N_2
REMARK    2  A    between atoms: N_2  and  C_3
REMARK    3  A    between atoms: N_2  and  C_4
REMARK    4  A    between atoms: C_4  and  C_5
REMARK    5  A    between atoms: C_5  and  C_6
REMARK    6  A    between atoms: C_11  and  C_12
REMARK                            x       y       z     vdW  Elec       q    Type
REMARK                         _______ _______ _______ _____ _____    ______ ____
ROOT
ATOM      1  C   UNL     1     100.154 103.709  98.262  0.00  0.00    +0.000 A 
ATOM      2  C   UNL     1     101.274 104.248  97.657  0.00  0.00    +0.000 A 
ATOM      3  N   UNL     1     101.938 105.003  98.583  0.00  0.00    +0.000 N 
ATOM      4  C   UNL     1     101.270 104.980  99.785  0.00  0.00    +0.000 A 
ATOM      5  C   UNL     1     101.558 105.634 100.990  0.00  0.00    +0.000 A 
ATOM      6  C   UNL     1     100.687 105.429 102.072  0.00  0.00    +0.000 A 
ATOM      7  C   UNL     1     100.919 106.129 103.379  0.00  0.00    +0.000 C 
ATOM      8  C   UNL     1      99.587 104.576 101.937  0.00  0.00    +0.000 A 
ATOM      9  C   UNL     1      99.314 103.934 100.724  0.00  0.00    +0.000 A 
ATOM     10  C   UNL     1     100.164 104.149  99.622  0.00  0.00    +0.000 A 
ATOM     11  H   UNL     1     102.788 105.524  98.411  0.00  0.00    +0.000 HD
ENDROOT
BRANCH   1  12
ATOM     12  C   UNL     1      99.105 102.867  97.605  0.00  0.00    +0.000 C 
BRANCH  12  13
ATOM     13  C   UNL     1      98.014 103.741  96.957  0.00  0.00    +0.000 C 
BRANCH  13  15
ATOM     14  C   UNL     1      97.977 104.849  94.825  0.00  0.00    +0.000 C 
ATOM     15  N   UNL     1      97.842 103.554  95.501  0.00  0.00    +0.000 NA
ATOM     16  C   UNL     1      98.814 102.608  94.951  0.00  0.00    +0.000 C 
ENDBRANCH  13  15
ENDBRANCH  12  13
ENDBRANCH   1  12
TORSDOF 3
ENDMDL
MODEL 5
REMARK VINA RESULT:    -5.645      1.517      6.500
REMARK INTER + INTRA:          -6.845
REMARK INTER:                  -6.669
REMARK INTRA:                  -0.176
REMARK UNBOUND:                -0.210
REMARK  Name = 
REMARK  6 active torsions:
REMARK  status: ('A' for Active; 'I' for Inactive)
REMARK    1  A    between atoms: C_1  and  N_2
REMARK    2  A    between atoms: N_2  and  C_3
REMARK    3  A    between atoms: N_2  and  C_4
REMARK    4  A    between atoms: C_4  and  C_5
REMARK    5  A    between atoms: C_5  and  C_6
REMARK    6  A    between atoms: C_11  and  C_12
REMARK                            x       y       z     vdW  Elec       q    Type
REMARK                         _______ _______ _______ _____ _____    ______ ____
ROOT
ATOM      1  C   UNL     1      96.378 107.946  93.780  0.00  0.00    +0.000 A 
ATOM      2  C   UNL     1      95.276 108.446  93.112  0.00  0.00    +0.000 A 
ATOM      3  N   UNL     1      94.624 109.308  93.948  0.00  0.00    +0.000 N 
ATOM      4  C   UNL     1      95.269 109.378  95.160  0.00  0.00    +0.000 A 
ATOM      5  C   UNL     1      94.940 110.094  96.318  0.00  0.00    +0.000 A 
ATOM      6  C   UNL     1      95.791 109.973  97.428  0.00  0.00    +0.000 A 
ATOM      7  C   UNL     1      95.474 110.685  98.711  0.00  0.00    +0.000 C 
ATOM      8  C   UNL     1      96.939 109.178  97.351  0.00  0.00    +0.000 A 
ATOM      9  C   UNL     1      97.250 108.469  96.186  0.00  0.00    +0.000 A 
ATOM     10  C   UNL     1      96.392 108.558  95.072  0.00  0.00    +0.000 A 
ATOM     11  H   UNL     1      93.774 109.810  93.723  0.00  0.00    +0.000 HD
ENDROOT
BRANCH   1  12
ATOM     12  C   UNL     1      97.343 106.923  93.268  0.00  0.00    +0.000 C 
BRANCH  12  13
ATOM     13  C   UNL     1      97.448 106.978  91.731  0.00  0.00    +0.000 C 
BRANCH  13  15
ATOM     14  C   UNL     1      95.705 106.355  90.199  0.00  0.00    +0.000 C 
ATOM     15  N   UNL     1      96.812 105.850  91.018  0.00  0.00    +0.000 NA
ATOM     16  C   UNL     1      97.762 105.130  90.169  0.00  0.00    +0.000 C 
ENDBRANCH  13  15
ENDBRANCH  12  13
ENDBRANCH   1  12
TORSDOF 3
ENDMDL
MODEL 6
REMARK VINA RESULT:    -5.625      1.733      6.122
REMARK INTER + INTRA:          -6.821
REMARK INTER:                  -6.639
REMARK INTRA:                  -0.182
REMARK UNBOUND:                -0.210
REMARK  Name = 
REMARK  6 active torsions:
REMARK  status: ('A' for Active; 'I' for Inactive)
REMARK    1  A    between atoms: C_1  and  N_2
REMARK    2  A    between atoms: N_2  and  C_3
REMARK    3  A    between atoms: N_2  and  C_4
REMARK    4  A    between atoms: C_4  and  C_5
REMARK    5  A    between atoms: C_5  and  C_6
REMARK    6  A    between atoms: C_11  and  C_12
REMARK                            x       y       z     vdW  Elec       q    Type
REMARK                         _______ _______ _______ _____ _____    ______ ____
ROOT
ATOM      1  C   UNL     1      97.017 107.577  93.711  0.00  0.00    +0.000 A 
ATOM      2  C   UNL     1      97.552 106.439  94.285  0.00  0.00    +0.000 A 
ATOM      3  N   UNL     1      97.171 106.402  95.597  0.00  0.00    +0.000 N 
ATOM      4  C   UNL     1      96.401 107.500  95.901  0.00  0.00    +0.000 A 
ATOM      5  C   UNL     1      95.830 107.894  97.118  0.00  0.00    +0.000 A 
ATOM      6  C   UNL     1      95.085 109.083  97.139  0.00  0.00    +0.000 A 
ATOM      7  C   UNL     1      94.479 109.579  98.420  0.00  0.00    +0.000 C 
ATOM      8  C   UNL     1      94.908 109.823  95.966  0.00  0.00    +0.000 A 
ATOM      9  C   UNL     1      95.488 109.415  94.760  0.00  0.00    +0.000 A 
ATOM     10  C   UNL     1      96.260 108.238  94.728  0.00  0.00    +0.000 A 
ATOM     11  H   UNL     1      97.430 105.684  96.261  0.00  0.00    +0.000 HD
ENDROOT
BRANCH   1  12
ATOM     12  C   UNL     1      97.229 108.050  92.306  0.00  0.00    +0.000 C 
BRANCH  12  13
ATOM     13  C   UNL     1      97.590 106.879  91.373  0.00  0.00    +0.000 C 
BRANCH  13  15
ATOM     14  C   UNL     1      95.508 106.882  90.173  0.00  0.00    +0.000 C 
ATOM     15  N   UNL     1      96.447 106.051  90.934  0.00  0.00    +0.000 NA
ATOM     16  C   UNL     1      96.874 104.915  90.115  0.00  0.00    +0.000 C 
ENDBRANCH  13  15
ENDBRANCH  12  13
ENDBRANCH   1  12
TORSDOF 3
ENDMDL
MODEL 7
REMARK VINA RESULT:    -5.606      6.280      7.931
REMARK INTER + INTRA:          -6.799
REMARK INTER:                  -6.503
REMARK INTRA:                  -0.297
REMARK UNBOUND:                -0.210
REMARK  Name = 
REMARK  6 active torsions:
REMARK  status: ('A' for Active; 'I' for Inactive)
REMARK    1  A    between atoms: C_1  and  N_2
REMARK    2  A    between atoms: N_2  and  C_3
REMARK    3  A    between atoms: N_2  and  C_4
REMARK    4  A    between atoms: C_4  and  C_5
REMARK    5  A    between atoms: C_5  and  C_6
REMARK    6  A    between atoms: C_11  and  C_12
REMARK                            x       y       z     vdW  Elec       q    Type
REMARK                         _______ _______ _______ _____ _____    ______ ____
ROOT
ATOM      1  C   UNL     1      94.851 113.403  95.217  0.00  0.00    +0.000 A 
ATOM      2  C   UNL     1      94.059 112.801  94.257  0.00  0.00    +0.000 A 
ATOM      3  N   UNL     1      93.725 111.552  94.699  0.00  0.00    +0.000 N 
ATOM      4  C   UNL     1      94.290 111.315  95.930  0.00  0.00    +0.000 A 
ATOM      5  C   UNL     1      94.251 110.170  96.736  0.00  0.00    +0.000 A 
ATOM      6  C   UNL     1      94.934 110.207  97.962  0.00  0.00    +0.000 A 
ATOM      7  C   UNL     1      94.961 109.001  98.855  0.00  0.00    +0.000 C 
ATOM      8  C   UNL     1      95.604 111.368  98.359  0.00  0.00    +0.000 A 
ATOM      9  C   UNL     1      95.634 112.501  97.539  0.00  0.00    +0.000 A 
ATOM     10  C   UNL     1      94.976 112.472  96.295  0.00  0.00    +0.000 A 
ATOM     11  H   UNL     1      93.160 110.884  94.191  0.00  0.00    +0.000 HD
ENDROOT
BRANCH   1  12
ATOM     12  C   UNL     1      95.495 114.751  95.124  0.00  0.00    +0.000 C 
BRANCH  12  13
ATOM     13  C   UNL     1      94.573 115.848  95.693  0.00  0.00    +0.000 C 
BRANCH  13  15
ATOM     14  C   UNL     1      94.880 116.781  93.500  0.00  0.00    +0.000 C 
ATOM     15  N   UNL     1      94.024 116.786  94.692  0.00  0.00    +0.000 NA
ATOM     16  C   UNL     1      92.652 116.445  94.313  0.00  0.00    +0.000 C 
ENDBRANCH  13  15
ENDBRANCH  12  13
ENDBRANCH   1  12
TORSDOF 3
ENDMDL
MODEL 8
REMARK VINA RESULT:    -5.490      6.387      8.494
REMARK INTER + INTRA:          -6.663
REMARK INTER:                  -6.379
REMARK INTRA:                  -0.284
REMARK UNBOUND:                -0.210
REMARK  Name = 
REMARK  6 active torsions:
REMARK  status: ('A' for Active; 'I' for Inactive)
REMARK    1  A    between atoms: C_1  and  N_2
REMARK    2  A    between atoms: N_2  and  C_3
REMARK    3  A    between atoms: N_2  and  C_4
REMARK    4  A    between atoms: C_4  and  C_5
REMARK    5  A    between atoms: C_5  and  C_6
REMARK    6  A    between atoms: C_11  and  C_12
REMARK                            x       y       z     vdW  Elec       q    Type
REMARK                         _______ _______ _______ _____ _____    ______ ____
ROOT
ATOM      1  C   UNL     1     100.268 104.848  97.850  0.00  0.00    +0.000 A 
ATOM      2  C   UNL     1     100.679 103.792  97.057  0.00  0.00    +0.000 A 
ATOM      3  N   UNL     1     100.564 102.641  97.785  0.00  0.00    +0.000 N 
ATOM      4  C   UNL     1     100.093 102.919  99.046  0.00  0.00    +0.000 A 
ATOM      5  C   UNL     1      99.861 102.064 100.132  0.00  0.00    +0.000 A 
ATOM      6  C   UNL     1      99.375 102.630 101.321  0.00  0.00    +0.000 A 
ATOM      7  C   UNL     1      99.141 101.774 102.531  0.00  0.00    +0.000 C 
ATOM      8  C   UNL     1      99.115 104.003 101.391  0.00  0.00    +0.000 A 
ATOM      9  C   UNL     1      99.356 104.841 100.297  0.00  0.00    +0.000 A 
ATOM     10  C   UNL     1      99.868 104.292  99.105  0.00  0.00    +0.000 A 
ATOM     11  H   UNL     1     100.808 101.716  97.456  0.00  0.00    +0.000 HD
ENDROOT
BRANCH   1  12
ATOM     12  C   UNL     1     100.284 106.299  97.482  0.00  0.00    +0.000 C 
BRANCH  12  13
ATOM     13  C   UNL     1      99.184 106.624  96.452  0.00  0.00    +0.000 C 
BRANCH  13  15
ATOM     14  C   UNL     1      97.187 107.880  96.905  0.00  0.00    +0.000 C 
ATOM     15  N   UNL     1      97.801 106.549  96.968  0.00  0.00    +0.000 NA
ATOM     16  C   UNL     1      96.985 105.596  96.216  0.00  0.00    +0.000 C 
ENDBRANCH  13  15
ENDBRANCH  12  13
ENDBRANCH   1  12
TORSDOF 3
ENDMDL
MODEL 9
REMARK VINA RESULT:    -5.451      2.685      4.475
REMARK INTER + INTRA:          -6.617
REMARK INTER:                  -6.392
REMARK INTRA:                  -0.225
REMARK UNBOUND:                -0.210
REMARK  Name = 
REMARK  6 active torsions:
REMARK  status: ('A' for Active; 'I' for Inactive)
REMARK    1  A    between atoms: C_1  and  N_2
REMARK    2  A    between atoms: N_2  and  C_3
REMARK    3  A    between atoms: N_2  and  C_4
REMARK    4  A    between atoms: C_4  and  C_5
REMARK    5  A    between atoms: C_5  and  C_6
REMARK    6  A    between atoms: C_11  and  C_12
REMARK                            x       y       z     vdW  Elec       q    Type
REMARK                         _______ _______ _______ _____ _____    ______ ____
ROOT
ATOM      1  C   UNL     1      97.589 107.217  95.535  0.00  0.00    +0.000 A 
ATOM      2  C   UNL     1      96.546 107.869  96.168  0.00  0.00    +0.000 A 
ATOM      3  N   UNL     1      95.656 108.277  95.214  0.00  0.00    +0.000 N 
ATOM      4  C   UNL     1      96.097 107.915  93.963  0.00  0.00    +0.000 A 
ATOM      5  C   UNL     1      95.536 108.157  92.703  0.00  0.00    +0.000 A 
ATOM      6  C   UNL     1      96.216 107.667  91.577  0.00  0.00    +0.000 A 
ATOM      7  C   UNL     1      95.686 107.924  90.196  0.00  0.00    +0.000 C 
ATOM      8  C   UNL     1      97.401 106.942  91.732  0.00  0.00    +0.000 A 
ATOM      9  C   UNL     1      97.948 106.713  92.999  0.00  0.00    +0.000 A 
ATOM     10  C   UNL     1      97.292 107.220  94.137  0.00  0.00    +0.000 A 
ATOM     11  H   UNL     1      94.803 108.791  95.393  0.00  0.00    +0.000 HD
ENDROOT
BRANCH   1  12
ATOM     12  C   UNL     1      98.816 106.659  96.186  0.00  0.00    +0.000 C 
BRANCH  12  13
ATOM     13  C   UNL     1      98.557 105.246  96.742  0.00  0.00    +0.000 C 
BRANCH  13  15
ATOM     14  C   UNL     1     100.144 103.472  97.076  0.00  0.00    +0.000 C 
ATOM     15  N   UNL     1      99.315 104.163  96.081  0.00  0.00    +0.000 NA
ATOM     16  C   UNL     1      98.434 103.198  95.422  0.00  0.00    +0.000 C 
ENDBRANCH  13  15
ENDBRANCH  12  13
ENDBRANCH   1  12
TORSDOF 3
ENDMDL
