MODEL 1
REMARK VINA RESULT:    -6.130      0.000      0.000
REMARK INTER + INTRA:          -7.788
REMARK INTER:                  -7.564
REMARK INTRA:                  -0.225
REMARK UNBOUND:                -0.225
REMARK  Name = 
REMARK  7 active torsions:
REMARK  status: ('A' for Active; 'I' for Inactive)
REMARK    1  A    between atoms: C_1  and  N_2
REMARK    2  A    between atoms: N_2  and  C_3
REMARK    3  A    between atoms: N_2  and  C_4
REMARK    4  A    between atoms: C_4  and  C_5
REMARK    5  A    between atoms: C_5  and  C_6
REMARK    6  A    between atoms: C_11  and  O_12
REMARK    7  A    between atoms: O_12  and  C_13
REMARK                            x       y       z     vdW  Elec       q    Type
REMARK                         _______ _______ _______ _____ _____    ______ ____
ROOT
ATOM      1  C   UNL     1      96.936 108.227  93.832  0.00  0.00    +0.000 A 
ATOM      2  C   UNL     1      96.734 107.049  94.529  0.00  0.00    +0.000 A 
ATOM      3  N   UNL     1      96.941 106.000  93.677  0.00  0.00    +0.000 N 
ATOM      4  C   UNL     1      97.281 106.462  92.428  0.00  0.00    +0.000 A 
ATOM      5  C   UNL     1      97.588 105.754  91.256  0.00  0.00    +0.000 A 
ATOM      6  C   UNL     1      97.907 106.485  90.104  0.00  0.00    +0.000 A 
ATOM      7  C   UNL     1      97.902 107.878  90.137  0.00  0.00    +0.000 A 
ATOM      8  C   UNL     1      97.591 108.571  91.320  0.00  0.00    +0.000 A 
ATOM      9  C   UNL     1      97.279 107.855  92.490  0.00  0.00    +0.000 A 
ATOM     10  H   UNL     1      96.862 105.023  93.924  0.00  0.00    +0.000 HD
ENDROOT
BRANCH   6  11
ATOM     11  O   UNL     1      98.207 105.714  89.010  0.00  0.00    +0.000 OA
ATOM     12  C   UNL     1      99.375 106.072  88.280  0.00  0.00    +0.000 C 
ENDBRANCH   6  11
BRANCH   1  13
ATOM     13  C   UNL     1      96.817 109.616  94.393  0.00  0.00    +0.000 C 
BRANCH  13  14
ATOM     14  C   UNL     1      96.482 109.602  95.897  0.00  0.00    +0.000 C 
BRANCH  14  16
ATOM     15  C   UNL     1      94.557 110.811  95.121  0.00  0.00    +0.000 C 
ATOM     16  N   UNL     1      95.335 110.443  96.310  0.00  0.00    +0.000 NA
ATOM     17  C   UNL     1      94.460 109.769  97.269  0.00  0.00    +0.000 C 
ENDBRANCH  14  16
ENDBRANCH  13  14
ENDBRANCH   1  13
TORSDOF 4
ENDMDL
MODEL 2
REMARK VINA RESULT:    -5.962      2.835      3.838
REMARK INTER + INTRA:          -7.581
REMARK INTER:                  -7.354
REMARK INTRA:                  -0.227
REMARK UNBOUND:                -0.225
REMARK  Name = 
REMARK  7 active torsions:
REMARK  status: ('A' for Active; 'I' for Inactive)
REMARK    1  A    between atoms: C_1  and  N_2
REMARK    2  A    between atoms: N_2  and  C_3
REMARK    3  A    between atoms: N_2  and  C_4
REMARK    4  A    between atoms: C_4  and  C_5
REMARK    5  A    between atoms: C_5  and  C_6
REMARK    6  A    between atoms: C_11  and  O_12
REMARK    7  A    between atoms: O_12  and  C_13
REMARK                            x       y       z     vdW  Elec       q    Type
REMARK                         _______ _______ _______ _____ _____    ______ ____
ROOT
ATOM      1  C   UNL     1      97.647 107.592  90.567  0.00  0.00    +0.000 A 
ATOM      2  C   UNL     1      98.836 107.262  89.940  0.00  0.00    +0.000 A 
ATOM      3  N   UNL     1      98.602 106.215  89.093  0.00  0.00    +0.000 N 
ATOM      4  C   UNL     1      97.279 105.847  89.145  0.00  0.00    +0.000 A 
ATOM      5  C   UNL     1      96.593 104.841  88.447  0.00  0.00    +0.000 A 
ATOM      6  C   UNL     1      95.222 104.681  88.693  0.00  0.00    +0.000 A 
ATOM      7  C   UNL     1      94.578 105.501  89.616  0.00  0.00    +0.000 A 
ATOM      8  C   UNL     1      95.280 106.503  90.306  0.00  0.00    +0.000 A 
ATOM      9  C   UNL     1      96.655 106.687  90.066  0.00  0.00    +0.000 A 
ATOM     10  H   UNL     1      99.297 105.772  88.506  0.00  0.00    +0.000 HD
ENDROOT
BRANCH   6  11
ATOM     11  O   UNL     1      94.630 103.684  87.959  0.00  0.00    +0.000 OA
ATOM     12  C   UNL     1      93.922 102.691  88.692  0.00  0.00    +0.000 C 
ENDBRANCH   6  11
BRANCH   1  13
ATOM     13  C   UNL     1      97.457 108.692  91.573  0.00  0.00    +0.000 C 
BRANCH  13  14
ATOM     14  C   UNL     1      97.358 108.146  93.010  0.00  0.00    +0.000 C 
BRANCH  14  16
ATOM     15  C   UNL     1      95.278 108.982  93.872  0.00  0.00    +0.000 C 
ATOM     16  N   UNL     1      96.738 109.052  94.004  0.00  0.00    +0.000 NA
ATOM     17  C   UNL     1      97.114 108.722  95.379  0.00  0.00    +0.000 C 
ENDBRANCH  14  16
ENDBRANCH  13  14
ENDBRANCH   1  13
TORSDOF 4
ENDMDL
MODEL 3
REMARK VINA RESULT:    -5.921      2.098      3.177
REMARK INTER + INTRA:          -7.530
REMARK INTER:                  -7.131
REMARK INTRA:                  -0.399
REMARK UNBOUND:                -0.225
REMARK  Name = 
REMARK  7 active torsions:
REMARK  status: ('A' for Active; 'I' for Inactive)
REMARK    1  A    between atoms: C_1  and  N_2
REMARK    2  A    between atoms: N_2  and  C_3
REMARK    3  A    between atoms: N_2  and  C_4
REMARK    4  A    between atoms: C_4  and  C_5
REMARK    5  A    between atoms: C_5  and  C_6
REMARK    6  A    between atoms: C_11  and  O_12
REMARK    7  A    between atoms: O_12  and  C_13
REMARK                            x       y       z     vdW  Elec       q    Type
REMARK                         _______ _______ _______ _____ _____    ______ ____
ROOT
ATOM      1  C   UNL     1      96.596 108.406  94.426  0.00  0.00    +0.000 A 
ATOM      2  C   UNL     1      95.330 108.963  94.408  0.00  0.00    +0.000 A 
ATOM      3  N   UNL     1      94.715 108.603  93.242  0.00  0.00    +0.000 N 
ATOM      4  C   UNL     1      95.550 107.815  92.487  0.00  0.00    +0.000 A 
ATOM      5  C   UNL     1      95.340 107.215  91.236  0.00  0.00    +0.000 A 
ATOM      6  C   UNL     1      96.375 106.447  90.686  0.00  0.00    +0.000 A 
ATOM      7  C   UNL     1      97.579 106.304  91.373  0.00  0.00    +0.000 A 
ATOM      8  C   UNL     1      97.773 106.913  92.625  0.00  0.00    +0.000 A 
ATOM      9  C   UNL     1      96.741 107.678  93.199  0.00  0.00    +0.000 A 
ATOM     10  H   UNL     1      93.779 108.871  92.968  0.00  0.00    +0.000 HD
ENDROOT
BRANCH   6  11
ATOM     11  O   UNL     1      96.079 105.888  89.469  0.00  0.00    +0.000 OA
ATOM     12  C   UNL     1      97.154 105.262  88.778  0.00  0.00    +0.000 C 
ENDBRANCH   6  11
BRANCH   1  13
ATOM     13  C   UNL     1      97.607 108.547  95.530  0.00  0.00    +0.000 C 
BRANCH  13  14
ATOM     14  C   UNL     1      97.303 107.605  96.711  0.00  0.00    +0.000 C 
BRANCH  14  16
ATOM     15  C   UNL     1      97.260 105.257  96.206  0.00  0.00    +0.000 C 
ATOM     16  N   UNL     1      98.081 106.346  96.749  0.00  0.00    +0.000 NA
ATOM     17  C   UNL     1      99.329 106.433  95.990  0.00  0.00    +0.000 C 
ENDBRANCH  14  16
ENDBRANCH  13  14
ENDBRANCH   1  13
TORSDOF 4
ENDMDL
MODEL 4
REMARK VINA RESULT:    -5.782      3.107      6.693
REMARK INTER + INTRA:          -7.359
REMARK INTER:                  -7.121
REMARK INTRA:                  -0.238
REMARK UNBOUND:                -0.225
REMARK  Name = 
REMARK  7 active torsions:
REMARK  status: ('A' for Active; 'I' for Inactive)
REMARK    1  A    between atoms: C_1  and  N_2
REMARK    2  A    between atoms: N_2  and  C_3
REMARK    3  A    between atoms: N_2  and  C_4
REMARK    4  A    between atoms: C_4  and  C_5
REMARK    5  A    between atoms: C_5  and  C_6
REMARK    6  A    between atoms: C_11  and  O_12
REMARK    7  A    between atoms: O_12  and  C_13
REMARK                            x       y       z     vdW  Elec       q    Type
REMARK                         _______ _______ _______ _____ _____    ______ ____
ROOT
ATOM      1  C   UNL     1      96.574 107.736  93.063  0.00  0.00    +0.000 A 
ATOM      2  C   UNL     1      95.316 107.947  92.527  0.00  0.00    +0.000 A 
ATOM      3  N   UNL     1      94.603 108.731  93.391  0.00  0.00    +0.000 N 
ATOM      4  C   UNL     1      95.367 109.045  94.489  0.00  0.00    +0.000 A 
ATOM      5  C   UNL     1      95.055 109.824  95.614  0.00  0.00    +0.000 A 
ATOM      6  C   UNL     1      96.037 109.987  96.600  0.00  0.00    +0.000 A 
ATOM      7  C   UNL     1      97.280 109.374  96.457  0.00  0.00    +0.000 A 
ATOM      8  C   UNL     1      97.575 108.596  95.324  0.00  0.00    +0.000 A 
ATOM      9  C   UNL     1      96.606 108.429  94.317  0.00  0.00    +0.000 A 
ATOM     10  H   UNL     1      93.651 109.042  93.248  0.00  0.00    +0.000 HD
ENDROOT
BRANCH   6  11
ATOM     11  O   UNL     1      95.652 110.774  97.656  0.00  0.00    +0.000 OA
ATOM     12  C   UNL     1      94.920 110.131  98.694  0.00  0.00    +0.000 C 
ENDBRANCH   6  11
BRANCH   1  13
ATOM     13  C   UNL     1      97.677 106.933  92.433  0.00  0.00    +0.000 C 
BRANCH  13  14
ATOM     14  C   UNL     1      97.681 107.066  90.898  0.00  0.00    +0.000 C 
BRANCH  14  16
ATOM     15  C   UNL     1      96.102 105.788  89.617  0.00  0.00    +0.000 C 
ATOM     16  N   UNL     1      97.473 105.811  90.141  0.00  0.00    +0.000 NA
ATOM     17  C   UNL     1      98.415 105.659  89.032  0.00  0.00    +0.000 C 
ENDBRANCH  14  16
ENDBRANCH  13  14
ENDBRANCH   1  13
TORSDOF 4
ENDMDL
MODEL 5
REMARK VINA RESULT:    -5.781      7.781      9.633
REMARK INTER + INTRA:          -7.357
REMARK INTER:                  -7.030
REMARK INTRA:                  -0.328
REMARK UNBOUND:                -0.225
REMARK  Name = 
REMARK  7 active torsions:
REMARK  status: ('A' for Active; 'I' for Inactive)
REMARK    1  A    between atoms: C_1  and  N_2
REMARK    2  A    between atoms: N_2  and  C_3
REMARK    3  A    between atoms: N_2  and  C_4
REMARK    4  A    between atoms: C_4  and  C_5
REMARK    5  A    between atoms: C_5  and  C_6
REMARK    6  A    between atoms: C_11  and  O_12
REMARK    7  A    between atoms: O_12  and  C_13
REMARK                            x       y       z     vdW  Elec       q    Type
REMARK                         _______ _______ _______ _____ _____    ______ ____
ROOT
ATOM      1  C   UNL     1      99.905 104.534  97.974  0.00  0.00    +0.000 A 
ATOM      2  C   UNL     1     100.301 103.423  97.250  0.00  0.00    +0.000 A 
ATOM      3  N   UNL     1     100.325 102.344  98.090  0.00  0.00    +0.000 N 
ATOM      4  C   UNL     1      99.949 102.720  99.357  0.00  0.00    +0.000 A 
ATOM      5  C   UNL     1      99.822 101.954 100.527  0.00  0.00    +0.000 A 
ATOM      6  C   UNL     1      99.413 102.600 101.701  0.00  0.00    +0.000 A 
ATOM      7  C   UNL     1      99.155 103.969 101.692  0.00  0.00    +0.000 A 
ATOM      8  C   UNL     1      99.288 104.721 100.512  0.00  0.00    +0.000 A 
ATOM      9  C   UNL     1      99.687 104.089  99.320  0.00  0.00    +0.000 A 
ATOM     10  H   UNL     1     100.577 101.402  97.824  0.00  0.00    +0.000 HD
ENDROOT
BRANCH   6  11
ATOM     11  O   UNL     1      99.303 101.774 102.790  0.00  0.00    +0.000 OA
ATOM     12  C   UNL     1     100.470 101.616 103.589  0.00  0.00    +0.000 C 
ENDBRANCH   6  11
BRANCH   1  13
ATOM     13  C   UNL     1      99.741 105.926  97.433  0.00  0.00    +0.000 C 
BRANCH  13  14
ATOM     14  C   UNL     1     101.089 106.541  97.009  0.00  0.00    +0.000 C 
BRANCH  14  16
ATOM     15  C   UNL     1     100.767 107.907  98.959  0.00  0.00    +0.000 C 
ATOM     16  N   UNL     1     101.769 107.369  98.030  0.00  0.00    +0.000 NA
ATOM     17  C   UNL     1     102.773 106.619  98.786  0.00  0.00    +0.000 C 
ENDBRANCH  14  16
ENDBRANCH  13  14
ENDBRANCH   1  13
TORSDOF 4
ENDMDL
MODEL 6
REMARK VINA RESULT:    -5.692      1.870      2.916
REMARK INTER + INTRA:          -7.247
REMARK INTER:                  -7.047
REMARK INTRA:                  -0.201
REMARK UNBOUND:                -0.225
REMARK  Name = 
REMARK  7 active torsions:
REMARK  status: ('A' for Active; 'I' for Inactive)
REMARK    1  A    between atoms: C_1  and  N_2
REMARK    2  A    between atoms: N_2  and  C_3
REMARK    3  A    between atoms: N_2  and  C_4
REMARK    4  A    between atoms: C_4  and  C_5
REMARK    5  A    between atoms: C_5  and  C_6
REMARK    6  A    between atoms: C_11  and  O_12
REMARK    7  A    between atoms: O_12  and  C_13
REMARK                            x       y       z     vdW  Elec       q    Type
REMARK                         _______ _______ _______ _____ _____    ______ ____
ROOT
ATOM      1  C   UNL     1      97.229 106.791  91.792  0.00  0.00    +0.000 A 
ATOM      2  C   UNL     1      97.253 105.410  91.699  0.00  0.00    +0.000 A 
ATOM      3  N   UNL     1      97.949 105.064  90.574  0.00  0.00    +0.000 N 
ATOM      4  C   UNL     1      98.389 106.191  89.922  0.00  0.00    +0.000 A 
ATOM      5  C   UNL     1      99.142 106.317  88.744  0.00  0.00    +0.000 A 
ATOM      6  C   UNL     1      99.460 107.606  88.295  0.00  0.00    +0.000 A 
ATOM      7  C   UNL     1      99.022 108.721  89.006  0.00  0.00    +0.000 A 
ATOM      8  C   UNL     1      98.268 108.576  90.183  0.00  0.00    +0.000 A 
ATOM      9  C   UNL     1      97.947 107.290  90.656  0.00  0.00    +0.000 A 
ATOM     10  H   UNL     1      98.123 104.118  90.262  0.00  0.00    +0.000 HD
ENDROOT
BRANCH   6  11
ATOM     11  O   UNL     1     100.209 107.635  87.146  0.00  0.00    +0.000 OA
ATOM     12  C   UNL     1     100.837 108.872  86.827  0.00  0.00    +0.000 C 
ENDBRANCH   6  11
BRANCH   1  13
ATOM     13  C   UNL     1      96.573 107.590  92.883  0.00  0.00    +0.000 C 
BRANCH  13  14
ATOM     14  C   UNL     1      96.622 106.860  94.239  0.00  0.00    +0.000 C 
BRANCH  14  16
ATOM     15  C   UNL     1      97.831 108.123  95.885  0.00  0.00    +0.000 C 
ATOM     16  N   UNL     1      96.493 107.718  95.439  0.00  0.00    +0.000 NA
ATOM     17  C   UNL     1      95.685 108.913  95.191  0.00  0.00    +0.000 C 
ENDBRANCH  14  16
ENDBRANCH  13  14
ENDBRANCH   1  13
TORSDOF 4
ENDMDL
MODEL 7
REMARK VINA RESULT:    -5.638      5.700      7.768
REMARK INTER + INTRA:          -7.181
REMARK INTER:                  -6.946
REMARK INTRA:                  -0.235
REMARK UNBOUND:                -0.225
REMARK  Name = 
REMARK  7 active torsions:
REMARK  status: ('A' for Active; 'I' for Inactive)
REMARK    1  A    between atoms: C_1  and  N_2
REMARK    2  A    between atoms: N_2  and  C_3
REMARK    3  A    between atoms: N_2  and  C_4
REMARK    4  A    between atoms: C_4  and  C_5
REMARK    5  A    between atoms: C_5  and  C_6
REMARK    6  A    between atoms: C_11  and  O_12
REMARK    7  A    between atoms: O_12  and  C_13
REMARK                            x       y       z     vdW  Elec       q    Type
REMARK                         _______ _______ _______ _____ _____    ______ ____
ROOT
ATOM      1  C   UNL     1      98.539 104.452  95.979  0.00  0.00    +0.000 A 
ATOM      2  C   UNL     1      98.388 103.177  95.462  0.00  0.00    +0.000 A 
ATOM      3  N   UNL     1      98.700 102.273  96.439  0.00  0.00    +0.000 N 
ATOM      4  C   UNL     1      99.051 102.926  97.596  0.00  0.00    +0.000 A 
ATOM      5  C   UNL     1      99.432 102.410  98.844  0.00  0.00    +0.000 A 
ATOM      6  C   UNL     1      99.739 103.315  99.870  0.00  0.00    +0.000 A 
ATOM      7  C   UNL     1      99.674 104.686  99.634  0.00  0.00    +0.000 A 
ATOM      8  C   UNL     1      99.290 105.186  98.377  0.00  0.00    +0.000 A 
ATOM      9  C   UNL     1      98.967 104.294  97.338  0.00  0.00    +0.000 A 
ATOM     10  H   UNL     1      98.674 101.268  96.334  0.00  0.00    +0.000 HD
ENDROOT
BRANCH   6  11
ATOM     11  O   UNL     1     100.089 102.725 101.057  0.00  0.00    +0.000 OA
ATOM     12  C   UNL     1     100.326 103.598 102.156  0.00  0.00    +0.000 C 
ENDBRANCH   6  11
BRANCH   1  13
ATOM     13  C   UNL     1      98.292 105.738  95.242  0.00  0.00    +0.000 C 
BRANCH  13  14
ATOM     14  C   UNL     1      96.792 105.972  94.980  0.00  0.00    +0.000 C 
BRANCH  14  16
ATOM     15  C   UNL     1      96.040 107.808  93.626  0.00  0.00    +0.000 C 
ATOM     16  N   UNL     1      96.434 106.394  93.607  0.00  0.00    +0.000 NA
ATOM     17  C   UNL     1      97.534 106.214  92.658  0.00  0.00    +0.000 C 
ENDBRANCH  14  16
ENDBRANCH  13  14
ENDBRANCH   1  13
TORSDOF 4
ENDMDL
MODEL 8
REMARK VINA RESULT:    -5.454      5.271      6.097
REMARK INTER + INTRA:          -6.954
REMARK INTER:                  -6.731
REMARK INTRA:                  -0.223
REMARK UNBOUND:                -0.225
REMARK  Name = 
REMARK  7 active torsions:
REMARK  status: ('A' for Active; 'I' for Inactive)
REMARK    1  A    between atoms: C_1  and  N_2
REMARK    2  A    between atoms: N_2  and  C_3
REMARK    3  A    between atoms: N_2  and  C_4
REMARK    4  A    between atoms: C_4  and  C_5
REMARK    5  A    between atoms: C_5  and  C_6
REMARK    6  A    between atoms: C_11  and  O_12
REMARK    7  A    between atoms: O_12  and  C_13
REMARK                            x       y       z     vdW  Elec       q    Type
REMARK                         _______ _______ _______ _____ _____    ______ ____
ROOT
ATOM      1  C   UNL     1      99.077 106.067  98.289  0.00  0.00    +0.000 A 
ATOM      2  C   UNL     1      99.393 105.361  99.436  0.00  0.00    +0.000 A 
ATOM      3  N   UNL     1      99.352 104.025  99.149  0.00  0.00    +0.000 N 
ATOM      4  C   UNL     1      99.018 103.833  97.830  0.00  0.00    +0.000 A 
ATOM      5  C   UNL     1      98.869 102.644  97.099  0.00  0.00    +0.000 A 
ATOM      6  C   UNL     1      98.520 102.737  95.745  0.00  0.00    +0.000 A 
ATOM      7  C   UNL     1      98.318 103.985  95.160  0.00  0.00    +0.000 A 
ATOM      8  C   UNL     1      98.470 105.165  95.906  0.00  0.00    +0.000 A 
ATOM      9  C   UNL     1      98.831 105.094  97.265  0.00  0.00    +0.000 A 
ATOM     10  H   UNL     1      99.542 103.280  99.805  0.00  0.00    +0.000 HD
ENDROOT
BRANCH   6  11
ATOM     11  O   UNL     1      98.410 101.528  95.107  0.00  0.00    +0.000 OA
ATOM     12  C   UNL     1      98.727 101.510  93.719  0.00  0.00    +0.000 C 
ENDBRANCH   6  11
BRANCH   1  13
ATOM     13  C   UNL     1      99.013 107.563  98.163  0.00  0.00    +0.000 C 
BRANCH  13  14
ATOM     14  C   UNL     1     100.356 108.159  97.699  0.00  0.00    +0.000 C 
BRANCH  14  16
ATOM     15  C   UNL     1      99.412 110.363  97.554  0.00  0.00    +0.000 C 
ATOM     16  N   UNL     1     100.572 109.589  98.016  0.00  0.00    +0.000 NA
ATOM     17  C   UNL     1     100.769 109.825  99.446  0.00  0.00    +0.000 C 
ENDBRANCH  14  16
ENDBRANCH  13  14
ENDBRANCH   1  13
TORSDOF 4
ENDMDL
MODEL 9
REMARK VINA RESULT:    -5.375      3.136      6.035
REMARK INTER + INTRA:          -6.857
REMARK INTER:                  -6.495
REMARK INTRA:                  -0.361
REMARK UNBOUND:                -0.225
REMARK  Name = 
REMARK  7 active torsions:
REMARK  status: ('A' for Active; 'I' for Inactive)
REMARK    1  A    between atoms: C_1  and  N_2
REMARK    2  A    between atoms: N_2  and  C_3
REMARK    3  A    between atoms: N_2  and  C_4
REMARK    4  A    between atoms: C_4  and  C_5
REMARK    5  A    between atoms: C_5  and  C_6
REMARK    6  A    between atoms: C_11  and  O_12
REMARK    7  A    between atoms: O_12  and  C_13
REMARK                            x       y       z     vdW  Elec       q    Type
REMARK                         _______ _______ _______ _____ _____    ______ ____
ROOT
ATOM      1  C   UNL     1      97.458 106.761  93.628  0.00  0.00    +0.000 A 
ATOM      2  C   UNL     1      97.587 105.693  94.499  0.00  0.00    +0.000 A 
ATOM      3  N   UNL     1      97.023 106.039  95.695  0.00  0.00    +0.000 N 
ATOM      4  C   UNL     1      96.520 107.317  95.632  0.00  0.00    +0.000 A 
ATOM      5  C   UNL     1      95.854 108.075  96.607  0.00  0.00    +0.000 A 
ATOM      6  C   UNL     1      95.440 109.371  96.271  0.00  0.00    +0.000 A 
ATOM      7  C   UNL     1      95.701 109.880  95.001  0.00  0.00    +0.000 A 
ATOM      8  C   UNL     1      96.370 109.107  94.036  0.00  0.00    +0.000 A 
ATOM      9  C   UNL     1      96.784 107.800  94.351  0.00  0.00    +0.000 A 
ATOM     10  H   UNL     1      96.974 105.445  96.512  0.00  0.00    +0.000 HD
ENDROOT
BRANCH   6  11
ATOM     11  O   UNL     1      94.786 110.034  97.278  0.00  0.00    +0.000 OA
ATOM     12  C   UNL     1      94.171 109.227  98.276  0.00  0.00    +0.000 C 
ENDBRANCH   6  11
BRANCH   1  13
ATOM     13  C   UNL     1      97.938 106.800  92.205  0.00  0.00    +0.000 C 
BRANCH  13  14
ATOM     14  C   UNL     1      96.934 106.139  91.241  0.00  0.00    +0.000 C 
BRANCH  14  16
ATOM     15  C   UNL     1      96.326 108.239  90.247  0.00  0.00    +0.000 C 
ATOM     16  N   UNL     1      95.801 106.988  90.808  0.00  0.00    +0.000 NA
ATOM     17  C   UNL     1      94.954 106.332  89.811  0.00  0.00    +0.000 C 
ENDBRANCH  14  16
ENDBRANCH  13  14
ENDBRANCH   1  13
TORSDOF 4
ENDMDL
