MODEL 1
REMARK VINA RESULT:    -6.516      0.000      0.000
REMARK INTER + INTRA:          -7.981
REMARK INTER:                  -7.849
REMARK INTRA:                  -0.132
REMARK UNBOUND:                -0.132
REMARK  Name = 
REMARK  5 active torsions:
REMARK  status: ('A' for Active; 'I' for Inactive)
REMARK    1  A    between atoms: N_1  and  C_2
REMARK    2  A    between atoms: C_2  and  C_3
REMARK    3  A    between atoms: C_3  and  C_4
REMARK    4  A    between atoms: C_9  and  O_10
REMARK    5  A    between atoms: O_10  and  C_11
REMARK                            x       y       z     vdW  Elec       q    Type
REMARK                         _______ _______ _______ _____ _____    ______ ____
ROOT
ATOM      1  C   UNL     1      98.454 107.571  89.562  0.00  0.00    +0.000 A 
ATOM      2  C   UNL     1      97.879 108.654  90.200  0.00  0.00    +0.000 A 
ATOM      3  N   UNL     1      96.572 108.348  90.477  0.00  0.00    +0.000 N 
ATOM      4  C   UNL     1      96.279 107.080  90.035  0.00  0.00    +0.000 A 
ATOM      5  C   UNL     1      95.087 106.346  90.110  0.00  0.00    +0.000 A 
ATOM      6  C   UNL     1      95.070 105.052  89.574  0.00  0.00    +0.000 A 
ATOM      7  C   UNL     1      96.214 104.526  88.975  0.00  0.00    +0.000 A 
ATOM      8  C   UNL     1      97.398 105.272  88.908  0.00  0.00    +0.000 A 
ATOM      9  C   UNL     1      97.438 106.571  89.451  0.00  0.00    +0.000 A 
ATOM     10  H   UNL     1      95.917 108.959  90.943  0.00  0.00    +0.000 HD
ENDROOT
BRANCH   6  11
ATOM     11  O   UNL     1      93.870 104.403  89.701  0.00  0.00    +0.000 OA
ATOM     12  C   UNL     1      93.861 103.013  89.398  0.00  0.00    +0.000 C 
ENDBRANCH   6  11
BRANCH   1  13
ATOM     13  C   UNL     1      99.867 107.462  89.082  0.00  0.00    +0.000 C 
BRANCH  13  14
ATOM     14  C   UNL     1      99.957 107.422  87.553  0.00  0.00    +0.000 C 
BRANCH  14  15
ATOM     15  N   UNL     1     100.230 108.747  86.994  0.00  0.00    +0.000 NA
ATOM     16  H   UNL     1     101.227 108.825  86.796  0.00  0.00    +0.000 HD
ATOM     17  H   UNL     1     100.022 109.459  87.692  0.00  0.00    +0.000 HD
ENDBRANCH  14  15
ENDBRANCH  13  14
ENDBRANCH   1  13
TORSDOF 4
ENDMDL
MODEL 2
REMARK VINA RESULT:    -6.477      2.296      3.453
REMARK INTER + INTRA:          -7.935
REMARK INTER:                  -8.016
REMARK INTRA:                   0.081
REMARK UNBOUND:                -0.132
REMARK  Name = 
REMARK  5 active torsions:
REMARK  status: ('A' for Active; 'I' for Inactive)
REMARK    1  A    between atoms: N_1  and  C_2
REMARK    2  A    between atoms: C_2  and  C_3
REMARK    3  A    between atoms: C_3  and  C_4
REMARK    4  A    between atoms: C_9  and  O_10
REMARK    5  A    between atoms: O_10  and  C_11
REMARK                            x       y       z     vdW  Elec       q    Type
REMARK                         _______ _______ _______ _____ _____    ______ ____
ROOT
ATOM      1  C   UNL     1      98.054 106.042  88.949  0.00  0.00    +0.000 A 
ATOM      2  C   UNL     1      97.072 105.235  88.406  0.00  0.00    +0.000 A 
ATOM      3  N   UNL     1      95.911 105.438  89.106  0.00  0.00    +0.000 N 
ATOM      4  C   UNL     1      96.112 106.368  90.097  0.00  0.00    +0.000 A 
ATOM      5  C   UNL     1      95.221 106.893  91.043  0.00  0.00    +0.000 A 
ATOM      6  C   UNL     1      95.701 107.848  91.948  0.00  0.00    +0.000 A 
ATOM      7  C   UNL     1      97.036 108.248  91.904  0.00  0.00    +0.000 A 
ATOM      8  C   UNL     1      97.915 107.714  90.953  0.00  0.00    +0.000 A 
ATOM      9  C   UNL     1      97.448 106.760  90.027  0.00  0.00    +0.000 A 
ATOM     10  H   UNL     1      95.032 104.978  88.921  0.00  0.00    +0.000 HD
ENDROOT
BRANCH   6  11
ATOM     11  O   UNL     1      94.761 108.317  92.828  0.00  0.00    +0.000 OA
ATOM     12  C   UNL     1      95.247 108.988  93.984  0.00  0.00    +0.000 C 
ENDBRANCH   6  11
BRANCH   1  13
ATOM     13  C   UNL     1      99.475 106.149  88.495  0.00  0.00    +0.000 C 
BRANCH  13  14
ATOM     14  C   UNL     1      99.922 107.606  88.331  0.00  0.00    +0.000 C 
BRANCH  14  15
ATOM     15  N   UNL     1     100.424 107.867  86.981  0.00  0.00    +0.000 NA
ATOM     16  H   UNL     1     101.443 107.818  86.991  0.00  0.00    +0.000 HD
ATOM     17  H   UNL     1     100.189 108.821  86.710  0.00  0.00    +0.000 HD
ENDBRANCH  14  15
ENDBRANCH  13  14
ENDBRANCH   1  13
TORSDOF 4
ENDMDL
MODEL 3
REMARK VINA RESULT:    -6.195      2.800      5.012
REMARK INTER + INTRA:          -7.595
REMARK INTER:                  -7.403
REMARK INTRA:                  -0.191
REMARK UNBOUND:                -0.132
REMARK  Name = 
REMARK  5 active torsions:
REMARK  status: ('A' for Active; 'I' for Inactive)
REMARK    1  A    between atoms: N_1  and  C_2
REMARK    2  A    between atoms: C_2  and  C_3
REMARK    3  A    between atoms: C_3  and  C_4
REMARK    4  A    between atoms: C_9  and  O_10
REMARK    5  A    between atoms: O_10  and  C_11
REMARK                            x       y       z     vdW  Elec       q    Type
REMARK                         _______ _______ _______ _____ _____    ______ ____
ROOT
ATOM      1  C   UNL     1      96.212 105.569  89.899  0.00  0.00    +0.000 A 
ATOM      2  C   UNL     1      95.812 106.589  90.741  0.00  0.00    +0.000 A 
ATOM      3  N   UNL     1      96.733 107.600  90.663  0.00  0.00    +0.000 N 
ATOM      4  C   UNL     1      97.731 107.264  89.780  0.00  0.00    +0.000 A 
ATOM      5  C   UNL     1      98.864 107.983  89.375  0.00  0.00    +0.000 A 
ATOM      6  C   UNL     1      99.726 107.392  88.442  0.00  0.00    +0.000 A 
ATOM      7  C   UNL     1      99.455 106.117  87.946  0.00  0.00    +0.000 A 
ATOM      8  C   UNL     1      98.318 105.411  88.360  0.00  0.00    +0.000 A 
ATOM      9  C   UNL     1      97.435 105.993  89.290  0.00  0.00    +0.000 A 
ATOM     10  H   UNL     1      96.688 108.470  91.173  0.00  0.00    +0.000 HD
ENDROOT
BRANCH   6  11
ATOM     11  O   UNL     1     100.800 108.168  88.093  0.00  0.00    +0.000 OA
ATOM     12  C   UNL     1     100.758 108.776  86.808  0.00  0.00    +0.000 C 
ENDBRANCH   6  11
BRANCH   1  13
ATOM     13  C   UNL     1      95.503 104.272  89.665  0.00  0.00    +0.000 C 
BRANCH  13  14
ATOM     14  C   UNL     1      94.507 104.359  88.503  0.00  0.00    +0.000 C 
BRANCH  14  15
ATOM     15  N   UNL     1      95.153 104.086  87.218  0.00  0.00    +0.000 NA
ATOM     16  H   UNL     1      94.443 103.801  86.544  0.00  0.00    +0.000 HD
ATOM     17  H   UNL     1      95.784 103.292  87.318  0.00  0.00    +0.000 HD
ENDBRANCH  14  15
ENDBRANCH  13  14
ENDBRANCH   1  13
TORSDOF 4
ENDMDL
MODEL 4
REMARK VINA RESULT:    -6.179      3.392      5.245
REMARK INTER + INTRA:          -7.575
REMARK INTER:                  -7.404
REMARK INTRA:                  -0.171
REMARK UNBOUND:                -0.132
REMARK  Name = 
REMARK  5 active torsions:
REMARK  status: ('A' for Active; 'I' for Inactive)
REMARK    1  A    between atoms: N_1  and  C_2
REMARK    2  A    between atoms: C_2  and  C_3
REMARK    3  A    between atoms: C_3  and  C_4
REMARK    4  A    between atoms: C_9  and  O_10
REMARK    5  A    between atoms: O_10  and  C_11
REMARK                            x       y       z     vdW  Elec       q    Type
REMARK                         _______ _______ _______ _____ _____    ______ ____
ROOT
ATOM      1  C   UNL     1      97.132 107.823  93.789  0.00  0.00    +0.000 A 
ATOM      2  C   UNL     1      97.063 106.602  94.433  0.00  0.00    +0.000 A 
ATOM      3  N   UNL     1      97.276 105.614  93.508  0.00  0.00    +0.000 N 
ATOM      4  C   UNL     1      97.489 106.164  92.267  0.00  0.00    +0.000 A 
ATOM      5  C   UNL     1      97.757 105.551  91.035  0.00  0.00    +0.000 A 
ATOM      6  C   UNL     1      97.938 106.368  89.913  0.00  0.00    +0.000 A 
ATOM      7  C   UNL     1      97.840 107.754  90.031  0.00  0.00    +0.000 A 
ATOM      8  C   UNL     1      97.572 108.353  91.269  0.00  0.00    +0.000 A 
ATOM      9  C   UNL     1      97.397 107.548  92.411  0.00  0.00    +0.000 A 
ATOM     10  H   UNL     1      97.284 104.623  93.705  0.00  0.00    +0.000 HD
ENDROOT
BRANCH   6  11
ATOM     11  O   UNL     1      98.208 105.687  88.755  0.00  0.00    +0.000 OA
ATOM     12  C   UNL     1      99.390 106.059  88.056  0.00  0.00    +0.000 C 
ENDBRANCH   6  11
BRANCH   1  13
ATOM     13  C   UNL     1      96.965 109.173  94.412  0.00  0.00    +0.000 C 
BRANCH  13  14
ATOM     14  C   UNL     1      95.538 109.402  94.922  0.00  0.00    +0.000 C 
BRANCH  14  15
ATOM     15  N   UNL     1      94.543 109.117  93.886  0.00  0.00    +0.000 NA
ATOM     16  H   UNL     1      94.395 109.958  93.329  0.00  0.00    +0.000 HD
ATOM     17  H   UNL     1      93.649 108.904  94.325  0.00  0.00    +0.000 HD
ENDBRANCH  14  15
ENDBRANCH  13  14
ENDBRANCH   1  13
TORSDOF 4
ENDMDL
MODEL 5
REMARK VINA RESULT:    -5.885      3.060      4.169
REMARK INTER + INTRA:          -7.222
REMARK INTER:                  -7.097
REMARK INTRA:                  -0.125
REMARK UNBOUND:                -0.132
REMARK  Name = 
REMARK  5 active torsions:
REMARK  status: ('A' for Active; 'I' for Inactive)
REMARK    1  A    between atoms: N_1  and  C_2
REMARK    2  A    between atoms: C_2  and  C_3
REMARK    3  A    between atoms: C_3  and  C_4
REMARK    4  A    between atoms: C_9  and  O_10
REMARK    5  A    between atoms: O_10  and  C_11
REMARK                            x       y       z     vdW  Elec       q    Type
REMARK                         _______ _______ _______ _____ _____    ______ ____
ROOT
ATOM      1  C   UNL     1      96.996 105.800  89.975  0.00  0.00    +0.000 A 
ATOM      2  C   UNL     1      95.750 105.546  89.434  0.00  0.00    +0.000 A 
ATOM      3  N   UNL     1      94.809 106.176  90.205  0.00  0.00    +0.000 N 
ATOM      4  C   UNL     1      95.414 106.843  91.242  0.00  0.00    +0.000 A 
ATOM      5  C   UNL     1      94.861 107.626  92.265  0.00  0.00    +0.000 A 
ATOM      6  C   UNL     1      95.727 108.202  93.203  0.00  0.00    +0.000 A 
ATOM      7  C   UNL     1      97.101 107.984  93.114  0.00  0.00    +0.000 A 
ATOM      8  C   UNL     1      97.640 107.199  92.086  0.00  0.00    +0.000 A 
ATOM      9  C   UNL     1      96.786 106.621  91.128  0.00  0.00    +0.000 A 
ATOM     10  H   UNL     1      93.813 106.160  90.037  0.00  0.00    +0.000 HD
ENDROOT
BRANCH   6  11
ATOM     11  O   UNL     1      95.103 108.960  94.159  0.00  0.00    +0.000 OA
ATOM     12  C   UNL     1      95.758 109.066  95.417  0.00  0.00    +0.000 C 
ENDBRANCH   6  11
BRANCH   1  13
ATOM     13  C   UNL     1      98.313 105.315  89.455  0.00  0.00    +0.000 C 
BRANCH  13  14
ATOM     14  C   UNL     1      98.773 106.101  88.223  0.00  0.00    +0.000 C 
BRANCH  14  15
ATOM     15  N   UNL     1     100.159 106.552  88.357  0.00  0.00    +0.000 NA
ATOM     16  H   UNL     1     100.171 107.444  88.851  0.00  0.00    +0.000 HD
ATOM     17  H   UNL     1     100.548 106.733  87.433  0.00  0.00    +0.000 HD
ENDBRANCH  14  15
ENDBRANCH  13  14
ENDBRANCH   1  13
TORSDOF 4
ENDMDL
MODEL 6
REMARK VINA RESULT:    -5.822      3.122      5.526
REMARK INTER + INTRA:          -7.146
REMARK INTER:                  -6.986
REMARK INTRA:                  -0.160
REMARK UNBOUND:                -0.132
REMARK  Name = 
REMARK  5 active torsions:
REMARK  status: ('A' for Active; 'I' for Inactive)
REMARK    1  A    between atoms: N_1  and  C_2
REMARK    2  A    between atoms: C_2  and  C_3
REMARK    3  A    between atoms: C_3  and  C_4
REMARK    4  A    between atoms: C_9  and  O_10
REMARK    5  A    between atoms: O_10  and  C_11
REMARK                            x       y       z     vdW  Elec       q    Type
REMARK                         _______ _______ _______ _____ _____    ______ ____
ROOT
ATOM      1  C   UNL     1      96.551 106.668  91.014  0.00  0.00    +0.000 A 
ATOM      2  C   UNL     1      96.551 105.302  90.802  0.00  0.00    +0.000 A 
ATOM      3  N   UNL     1      97.515 105.009  89.874  0.00  0.00    +0.000 N 
ATOM      4  C   UNL     1      98.154 106.158  89.475  0.00  0.00    +0.000 A 
ATOM      5  C   UNL     1      99.202 106.345  88.563  0.00  0.00    +0.000 A 
ATOM      6  C   UNL     1      99.670 107.647  88.347  0.00  0.00    +0.000 A 
ATOM      7  C   UNL     1      99.090 108.722  89.021  0.00  0.00    +0.000 A 
ATOM      8  C   UNL     1      98.043 108.520  89.930  0.00  0.00    +0.000 A 
ATOM      9  C   UNL     1      97.566 107.216  90.168  0.00  0.00    +0.000 A 
ATOM     10  H   UNL     1      97.734 104.084  89.533  0.00  0.00    +0.000 HD
ENDROOT
BRANCH   6  11
ATOM     11  O   UNL     1     100.702 107.737  87.451  0.00  0.00    +0.000 OA
ATOM     12  C   UNL     1     100.842 108.971  86.758  0.00  0.00    +0.000 C 
ENDBRANCH   6  11
BRANCH   1  13
ATOM     13  C   UNL     1      95.666 107.428  91.950  0.00  0.00    +0.000 C 
BRANCH  13  14
ATOM     14  C   UNL     1      96.279 107.558  93.349  0.00  0.00    +0.000 C 
BRANCH  14  15
ATOM     15  N   UNL     1      95.926 106.420  94.200  0.00  0.00    +0.000 NA
ATOM     16  H   UNL     1      96.055 105.558  93.671  0.00  0.00    +0.000 HD
ATOM     17  H   UNL     1      94.935 106.465  94.432  0.00  0.00    +0.000 HD
ENDBRANCH  14  15
ENDBRANCH  13  14
ENDBRANCH   1  13
TORSDOF 4
ENDMDL
MODEL 7
REMARK VINA RESULT:    -5.797      3.247      5.814
REMARK INTER + INTRA:          -7.115
REMARK INTER:                  -7.012
REMARK INTRA:                  -0.104
REMARK UNBOUND:                -0.132
REMARK  Name = 
REMARK  5 active torsions:
REMARK  status: ('A' for Active; 'I' for Inactive)
REMARK    1  A    between atoms: N_1  and  C_2
REMARK    2  A    between atoms: C_2  and  C_3
REMARK    3  A    between atoms: C_3  and  C_4
REMARK    4  A    between atoms: C_9  and  O_10
REMARK    5  A    between atoms: O_10  and  C_11
REMARK                            x       y       z     vdW  Elec       q    Type
REMARK                         _______ _______ _______ _____ _____    ______ ____
ROOT
ATOM      1  C   UNL     1      95.286 104.334  88.628  0.00  0.00    +0.000 A 
ATOM      2  C   UNL     1      95.338 104.022  87.283  0.00  0.00    +0.000 A 
ATOM      3  N   UNL     1      96.503 104.527  86.768  0.00  0.00    +0.000 N 
ATOM      4  C   UNL     1      97.221 105.162  87.753  0.00  0.00    +0.000 A 
ATOM      5  C   UNL     1      98.463 105.809  87.698  0.00  0.00    +0.000 A 
ATOM      6  C   UNL     1      98.969 106.375  88.875  0.00  0.00    +0.000 A 
ATOM      7  C   UNL     1      98.240 106.297  90.061  0.00  0.00    +0.000 A 
ATOM      8  C   UNL     1      97.000 105.646  90.101  0.00  0.00    +0.000 A 
ATOM      9  C   UNL     1      96.479 105.062  88.929  0.00  0.00    +0.000 A 
ATOM     10  H   UNL     1      96.800 104.444  85.806  0.00  0.00    +0.000 HD
ENDROOT
BRANCH   6  11
ATOM     11  O   UNL     1     100.192 106.976  88.733  0.00  0.00    +0.000 OA
ATOM     12  C   UNL     1     100.334 107.889  87.652  0.00  0.00    +0.000 C 
ENDBRANCH   6  11
BRANCH   1  13
ATOM     13  C   UNL     1      94.195 103.975  89.587  0.00  0.00    +0.000 C 
BRANCH  13  14
ATOM     14  C   UNL     1      93.861 102.480  89.551  0.00  0.00    +0.000 C 
BRANCH  14  15
ATOM     15  N   UNL     1      92.705 102.206  88.696  0.00  0.00    +0.000 NA
ATOM     16  H   UNL     1      92.649 101.203  88.525  0.00  0.00    +0.000 HD
ATOM     17  H   UNL     1      92.845 102.642  87.786  0.00  0.00    +0.000 HD
ENDBRANCH  14  15
ENDBRANCH  13  14
ENDBRANCH   1  13
TORSDOF 4
ENDMDL
MODEL 8
REMARK VINA RESULT:    -5.589      3.334      4.396
REMARK INTER + INTRA:          -6.865
REMARK INTER:                  -6.667
REMARK INTRA:                  -0.197
REMARK UNBOUND:                -0.132
REMARK  Name = 
REMARK  5 active torsions:
REMARK  status: ('A' for Active; 'I' for Inactive)
REMARK    1  A    between atoms: N_1  and  C_2
REMARK    2  A    between atoms: C_2  and  C_3
REMARK    3  A    between atoms: C_3  and  C_4
REMARK    4  A    between atoms: C_9  and  O_10
REMARK    5  A    between atoms: O_10  and  C_11
REMARK                            x       y       z     vdW  Elec       q    Type
REMARK                         _______ _______ _______ _____ _____    ______ ____
ROOT
ATOM      1  C   UNL     1      98.216 106.847  90.055  0.00  0.00    +0.000 A 
ATOM      2  C   UNL     1      98.215 108.157  89.616  0.00  0.00    +0.000 A 
ATOM      3  N   UNL     1      97.805 108.958  90.649  0.00  0.00    +0.000 N 
ATOM      4  C   UNL     1      97.541 108.197  91.762  0.00  0.00    +0.000 A 
ATOM      5  C   UNL     1      97.112 108.578  93.041  0.00  0.00    +0.000 A 
ATOM      6  C   UNL     1      96.923 107.578  94.003  0.00  0.00    +0.000 A 
ATOM      7  C   UNL     1      97.149 106.241  93.678  0.00  0.00    +0.000 A 
ATOM      8  C   UNL     1      97.577 105.875  92.395  0.00  0.00    +0.000 A 
ATOM      9  C   UNL     1      97.783 106.868  91.418  0.00  0.00    +0.000 A 
ATOM     10  H   UNL     1      97.714 109.963  90.607  0.00  0.00    +0.000 HD
ENDROOT
BRANCH   6  11
ATOM     11  O   UNL     1      96.516 108.040  95.228  0.00  0.00    +0.000 OA
ATOM     12  C   UNL     1      95.594 109.123  95.227  0.00  0.00    +0.000 C 
ENDBRANCH   6  11
BRANCH   1  13
ATOM     13  C   UNL     1      98.599 105.638  89.261  0.00  0.00    +0.000 C 
BRANCH  13  14
ATOM     14  C   UNL     1      97.596 105.338  88.142  0.00  0.00    +0.000 C 
BRANCH  14  15
ATOM     15  N   UNL     1      96.233 105.210  88.661  0.00  0.00    +0.000 NA
ATOM     16  H   UNL     1      95.573 105.336  87.894  0.00  0.00    +0.000 HD
ATOM     17  H   UNL     1      96.049 105.963  89.322  0.00  0.00    +0.000 HD
ENDBRANCH  14  15
ENDBRANCH  13  14
ENDBRANCH   1  13
TORSDOF 4
ENDMDL
MODEL 9
REMARK VINA RESULT:    -5.453      3.929      5.321
REMARK INTER + INTRA:          -6.702
REMARK INTER:                  -6.579
REMARK INTRA:                  -0.122
REMARK UNBOUND:                -0.132
REMARK  Name = 
REMARK  5 active torsions:
REMARK  status: ('A' for Active; 'I' for Inactive)
REMARK    1  A    between atoms: N_1  and  C_2
REMARK    2  A    between atoms: C_2  and  C_3
REMARK    3  A    between atoms: C_3  and  C_4
REMARK    4  A    between atoms: C_9  and  O_10
REMARK    5  A    between atoms: O_10  and  C_11
REMARK                            x       y       z     vdW  Elec       q    Type
REMARK                         _______ _______ _______ _____ _____    ______ ____
ROOT
ATOM      1  C   UNL     1      96.495 108.279  94.514  0.00  0.00    +0.000 A 
ATOM      2  C   UNL     1      95.304 108.979  94.464  0.00  0.00    +0.000 A 
ATOM      3  N   UNL     1      94.702 108.722  93.261  0.00  0.00    +0.000 N 
ATOM      4  C   UNL     1      95.475 107.861  92.519  0.00  0.00    +0.000 A 
ATOM      5  C   UNL     1      95.260 107.316  91.246  0.00  0.00    +0.000 A 
ATOM      6  C   UNL     1      96.227 106.448  90.723  0.00  0.00    +0.000 A 
ATOM      7  C   UNL     1      97.374 106.152  91.458  0.00  0.00    +0.000 A 
ATOM      8  C   UNL     1      97.576 106.705  92.730  0.00  0.00    +0.000 A 
ATOM      9  C   UNL     1      96.609 107.571  93.276  0.00  0.00    +0.000 A 
ATOM     10  H   UNL     1      93.817 109.101  92.959  0.00  0.00    +0.000 HD
ENDROOT
BRANCH   6  11
ATOM     11  O   UNL     1      95.930 105.952  89.481  0.00  0.00    +0.000 OA
ATOM     12  C   UNL     1      94.591 105.523  89.267  0.00  0.00    +0.000 C 
ENDBRANCH   6  11
BRANCH   1  13
ATOM     13  C   UNL     1      97.475 108.261  95.644  0.00  0.00    +0.000 C 
BRANCH  13  14
ATOM     14  C   UNL     1      96.898 107.600  96.900  0.00  0.00    +0.000 C 
BRANCH  14  15
ATOM     15  N   UNL     1      96.144 106.388  96.573  0.00  0.00    +0.000 NA
ATOM     16  H   UNL     1      95.520 106.166  97.348  0.00  0.00    +0.000 HD
ATOM     17  H   UNL     1      96.786 105.601  96.491  0.00  0.00    +0.000 HD
ENDBRANCH  14  15
ENDBRANCH  13  14
ENDBRANCH   1  13
TORSDOF 4
ENDMDL
