MODEL 1
REMARK VINA RESULT:    -6.962      0.000      0.000
REMARK INTER + INTRA:          -9.874
REMARK INTER:                  -9.404
REMARK INTRA:                  -0.470
REMARK UNBOUND:                -0.470
REMARK  Name = 
REMARK  10 active torsions:
REMARK  status: ('A' for Active; 'I' for Inactive)
REMARK    1  A    between atoms: C_1  and  N_2
REMARK    2  A    between atoms: N_2  and  C_3
REMARK    3  A    between atoms: N_2  and  C_7
REMARK    4  A    between atoms: C_3  and  C_4
REMARK    5  A    between atoms: C_4  and  C_5
REMARK    6  A    between atoms: C_4  and  C_6
REMARK    7  A    between atoms: C_7  and  C_8
REMARK    8  A    between atoms: C_8  and  C_9
REMARK    9  A    between atoms: C_14  and  O_15
REMARK   10  A    between atoms: O_15  and  C_16
REMARK                            x       y       z     vdW  Elec       q    Type
REMARK                         _______ _______ _______ _____ _____    ______ ____
ROOT
ATOM      1  C   UNL     1      96.934 108.226  93.744  0.00  0.00    +0.000 A 
ATOM      2  C   UNL     1      96.686 107.071  94.463  0.00  0.00    +0.000 A 
ATOM      3  N   UNL     1      96.901 105.998  93.639  0.00  0.00    +0.000 N 
ATOM      4  C   UNL     1      97.289 106.427  92.392  0.00  0.00    +0.000 A 
ATOM      5  C   UNL     1      97.632 105.696  91.248  0.00  0.00    +0.000 A 
ATOM      6  C   UNL     1      97.998 106.400  90.095  0.00  0.00    +0.000 A 
ATOM      7  C   UNL     1      97.990 107.794  90.092  0.00  0.00    +0.000 A 
ATOM      8  C   UNL     1      97.642 108.513  91.245  0.00  0.00    +0.000 A 
ATOM      9  C   UNL     1      97.297 107.820  92.422  0.00  0.00    +0.000 A 
ATOM     10  H   UNL     1      96.800 105.027  93.903  0.00  0.00    +0.000 HD
ENDROOT
BRANCH   6  11
ATOM     11  O   UNL     1      98.343 105.603  89.034  0.00  0.00    +0.000 OA
ATOM     12  C   UNL     1      99.424 106.052  88.225  0.00  0.00    +0.000 C 
ENDBRANCH   6  11
BRANCH   1  13
ATOM     13  C   UNL     1      96.847 109.630  94.259  0.00  0.00    +0.000 C 
BRANCH  13  14
ATOM     14  C   UNL     1      96.836 109.685  95.796  0.00  0.00    +0.000 C 
BRANCH  14  16
ATOM     15  C   UNL     1      94.687 110.638  95.329  0.00  0.00    +0.000 C 
ATOM     16  N   UNL     1      95.582 110.193  96.406  0.00  0.00    +0.000 NA
BRANCH  16  17
ATOM     17  C   UNL     1      94.936 109.175  97.258  0.00  0.00    +0.000 C 
BRANCH  17  18
ATOM     18  C   UNL     1      95.111 109.354  98.785  0.00  0.00    +0.000 C 
ATOM     19  C   UNL     1      96.301 108.514  99.263  0.00  0.00    +0.000 C 
ATOM     20  C   UNL     1      95.321 110.820  99.171  0.00  0.00    +0.000 C 
ENDBRANCH  17  18
ENDBRANCH  16  17
ENDBRANCH  14  16
ENDBRANCH  13  14
ENDBRANCH   1  13
TORSDOF 6
ENDMDL
MODEL 2
REMARK VINA RESULT:    -6.747      1.802      2.581
REMARK INTER + INTRA:          -9.584
REMARK INTER:                  -9.005
REMARK INTRA:                  -0.578
REMARK UNBOUND:                -0.470
REMARK  Name = 
REMARK  10 active torsions:
REMARK  status: ('A' for Active; 'I' for Inactive)
REMARK    1  A    between atoms: C_1  and  N_2
REMARK    2  A    between atoms: N_2  and  C_3
REMARK    3  A    between atoms: N_2  and  C_7
REMARK    4  A    between atoms: C_3  and  C_4
REMARK    5  A    between atoms: C_4  and  C_5
REMARK    6  A    between atoms: C_4  and  C_6
REMARK    7  A    between atoms: C_7  and  C_8
REMARK    8  A    between atoms: C_8  and  C_9
REMARK    9  A    between atoms: C_14  and  O_15
REMARK   10  A    between atoms: O_15  and  C_16
REMARK                            x       y       z     vdW  Elec       q    Type
REMARK                         _______ _______ _______ _____ _____    ______ ____
ROOT
ATOM      1  C   UNL     1      96.534 108.361  94.537  0.00  0.00    +0.000 A 
ATOM      2  C   UNL     1      95.297 108.971  94.433  0.00  0.00    +0.000 A 
ATOM      3  N   UNL     1      94.743 108.616  93.232  0.00  0.00    +0.000 N 
ATOM      4  C   UNL     1      95.593 107.782  92.545  0.00  0.00    +0.000 A 
ATOM      5  C   UNL     1      95.441 107.160  91.299  0.00  0.00    +0.000 A 
ATOM      6  C   UNL     1      96.481 106.346  90.832  0.00  0.00    +0.000 A 
ATOM      7  C   UNL     1      97.643 106.191  91.587  0.00  0.00    +0.000 A 
ATOM      8  C   UNL     1      97.781 106.822  92.833  0.00  0.00    +0.000 A 
ATOM      9  C   UNL     1      96.734 107.623  93.328  0.00  0.00    +0.000 A 
ATOM     10  H   UNL     1      93.837 108.912  92.895  0.00  0.00    +0.000 HD
ENDROOT
BRANCH   6  11
ATOM     11  O   UNL     1      96.235 105.758  89.619  0.00  0.00    +0.000 OA
ATOM     12  C   UNL     1      97.368 105.296  88.893  0.00  0.00    +0.000 C 
ENDBRANCH   6  11
BRANCH   1  13
ATOM     13  C   UNL     1      97.477 108.454  95.697  0.00  0.00    +0.000 C 
BRANCH  13  14
ATOM     14  C   UNL     1      97.183 107.392  96.771  0.00  0.00    +0.000 C 
BRANCH  14  16
ATOM     15  C   UNL     1      98.355 107.642  98.846  0.00  0.00    +0.000 C 
ATOM     16  N   UNL     1      97.082 107.902  98.160  0.00  0.00    +0.000 NA
BRANCH  16  17
ATOM     17  C   UNL     1      96.736 109.337  98.192  0.00  0.00    +0.000 C 
BRANCH  17  18
ATOM     18  C   UNL     1      95.487 109.718  99.021  0.00  0.00    +0.000 C 
ATOM     19  C   UNL     1      95.471 111.233  99.253  0.00  0.00    +0.000 C 
ATOM     20  C   UNL     1      94.188 109.285  98.336  0.00  0.00    +0.000 C 
ENDBRANCH  17  18
ENDBRANCH  16  17
ENDBRANCH  14  16
ENDBRANCH  13  14
ENDBRANCH   1  13
TORSDOF 6
ENDMDL
MODEL 3
REMARK VINA RESULT:    -6.510      1.341      2.571
REMARK INTER + INTRA:          -9.263
REMARK INTER:                  -8.783
REMARK INTRA:                  -0.480
REMARK UNBOUND:                -0.470
REMARK  Name = 
REMARK  10 active torsions:
REMARK  status: ('A' for Active; 'I' for Inactive)
REMARK    1  A    between atoms: C_1  and  N_2
REMARK    2  A    between atoms: N_2  and  C_3
REMARK    3  A    between atoms: N_2  and  C_7
REMARK    4  A    between atoms: C_3  and  C_4
REMARK    5  A    between atoms: C_4  and  C_5
REMARK    6  A    between atoms: C_4  and  C_6
REMARK    7  A    between atoms: C_7  and  C_8
REMARK    8  A    between atoms: C_8  and  C_9
REMARK    9  A    between atoms: C_14  and  O_15
REMARK   10  A    between atoms: O_15  and  C_16
REMARK                            x       y       z     vdW  Elec       q    Type
REMARK                         _______ _______ _______ _____ _____    ______ ____
ROOT
ATOM      1  C   UNL     1      96.906 108.235  93.811  0.00  0.00    +0.000 A 
ATOM      2  C   UNL     1      96.617 107.064  94.489  0.00  0.00    +0.000 A 
ATOM      3  N   UNL     1      96.822 106.013  93.635  0.00  0.00    +0.000 N 
ATOM      4  C   UNL     1      97.243 106.472  92.409  0.00  0.00    +0.000 A 
ATOM      5  C   UNL     1      97.590 105.768  91.249  0.00  0.00    +0.000 A 
ATOM      6  C   UNL     1      97.994 106.499  90.125  0.00  0.00    +0.000 A 
ATOM      7  C   UNL     1      98.019 107.893  90.167  0.00  0.00    +0.000 A 
ATOM      8  C   UNL     1      97.667 108.584  91.336  0.00  0.00    +0.000 A 
ATOM      9  C   UNL     1      97.284 107.862  92.483  0.00  0.00    +0.000 A 
ATOM     10  H   UNL     1      96.694 105.037  93.866  0.00  0.00    +0.000 HD
ENDROOT
BRANCH   6  11
ATOM     11  O   UNL     1      98.339 105.729  89.046  0.00  0.00    +0.000 OA
ATOM     12  C   UNL     1      99.499 106.126  88.324  0.00  0.00    +0.000 C 
ENDBRANCH   6  11
BRANCH   1  13
ATOM     13  C   UNL     1      96.842 109.624  94.369  0.00  0.00    +0.000 C 
BRANCH  13  14
ATOM     14  C   UNL     1      95.416 110.014  94.795  0.00  0.00    +0.000 C 
BRANCH  14  16
ATOM     15  C   UNL     1      96.235 109.834  97.040  0.00  0.00    +0.000 C 
ATOM     16  N   UNL     1      95.287 110.547  96.174  0.00  0.00    +0.000 NA
BRANCH  16  17
ATOM     17  C   UNL     1      95.507 112.006  96.219  0.00  0.00    +0.000 C 
BRANCH  17  18
ATOM     18  C   UNL     1      95.314 112.766  94.885  0.00  0.00    +0.000 C 
ATOM     19  C   UNL     1      93.957 113.478  94.896  0.00  0.00    +0.000 C 
ATOM     20  C   UNL     1      96.432 113.781  94.635  0.00  0.00    +0.000 C 
ENDBRANCH  17  18
ENDBRANCH  16  17
ENDBRANCH  14  16
ENDBRANCH  13  14
ENDBRANCH   1  13
TORSDOF 6
ENDMDL
MODEL 4
REMARK VINA RESULT:    -6.452      4.820      6.350
REMARK INTER + INTRA:          -9.185
REMARK INTER:                  -7.963
REMARK INTRA:                  -1.222
REMARK UNBOUND:                -0.470
REMARK  Name = 
REMARK  10 active torsions:
REMARK  status: ('A' for Active; 'I' for Inactive)
REMARK    1  A    between atoms: C_1  and  N_2
REMARK    2  A    between atoms: N_2  and  C_3
REMARK    3  A    between atoms: N_2  and  C_7
REMARK    4  A    between atoms: C_3  and  C_4
REMARK    5  A    between atoms: C_4  and  C_5
REMARK    6  A    between atoms: C_4  and  C_6
REMARK    7  A    between atoms: C_7  and  C_8
REMARK    8  A    between atoms: C_8  and  C_9
REMARK    9  A    between atoms: C_14  and  O_15
REMARK   10  A    between atoms: O_15  and  C_16
REMARK                            x       y       z     vdW  Elec       q    Type
REMARK                         _______ _______ _______ _____ _____    ______ ____
ROOT
ATOM      1  C   UNL     1      96.357 110.221  95.443  0.00  0.00    +0.000 A 
ATOM      2  C   UNL     1      95.245 109.423  95.245  0.00  0.00    +0.000 A 
ATOM      3  N   UNL     1      94.186 110.232  94.929  0.00  0.00    +0.000 N 
ATOM      4  C   UNL     1      94.583 111.549  94.915  0.00  0.00    +0.000 A 
ATOM      5  C   UNL     1      93.856 112.711  94.628  0.00  0.00    +0.000 A 
ATOM      6  C   UNL     1      94.521 113.941  94.686  0.00  0.00    +0.000 A 
ATOM      7  C   UNL     1      95.866 113.995  95.048  0.00  0.00    +0.000 A 
ATOM      8  C   UNL     1      96.581 112.822  95.335  0.00  0.00    +0.000 A 
ATOM      9  C   UNL     1      95.933 111.574  95.255  0.00  0.00    +0.000 A 
ATOM     10  H   UNL     1      93.247 109.916  94.727  0.00  0.00    +0.000 HD
ENDROOT
BRANCH   6  11
ATOM     11  O   UNL     1      93.739 115.020  94.364  0.00  0.00    +0.000 OA
ATOM     12  C   UNL     1      92.827 115.466  95.360  0.00  0.00    +0.000 C 
ENDBRANCH   6  11
BRANCH   1  13
ATOM     13  C   UNL     1      97.739 109.753  95.783  0.00  0.00    +0.000 C 
BRANCH  13  14
ATOM     14  C   UNL     1      98.089 109.999  97.260  0.00  0.00    +0.000 C 
BRANCH  14  16
ATOM     15  C   UNL     1      97.922 108.041  98.632  0.00  0.00    +0.000 C 
ATOM     16  N   UNL     1      97.239 109.282  98.243  0.00  0.00    +0.000 NA
BRANCH  16  17
ATOM     17  C   UNL     1      96.936 110.122  99.419  0.00  0.00    +0.000 C 
BRANCH  17  18
ATOM     18  C   UNL     1      95.506 110.710  99.486  0.00  0.00    +0.000 C 
ATOM     19  C   UNL     1      95.503 112.113  98.868  0.00  0.00    +0.000 C 
ATOM     20  C   UNL     1      94.486 109.823  98.767  0.00  0.00    +0.000 C 
ENDBRANCH  17  18
ENDBRANCH  16  17
ENDBRANCH  14  16
ENDBRANCH  13  14
ENDBRANCH   1  13
TORSDOF 6
ENDMDL
MODEL 5
REMARK VINA RESULT:    -6.388      4.952      7.945
REMARK INTER + INTRA:          -9.098
REMARK INTER:                  -8.760
REMARK INTRA:                  -0.339
REMARK UNBOUND:                -0.470
REMARK  Name = 
REMARK  10 active torsions:
REMARK  status: ('A' for Active; 'I' for Inactive)
REMARK    1  A    between atoms: C_1  and  N_2
REMARK    2  A    between atoms: N_2  and  C_3
REMARK    3  A    between atoms: N_2  and  C_7
REMARK    4  A    between atoms: C_3  and  C_4
REMARK    5  A    between atoms: C_4  and  C_5
REMARK    6  A    between atoms: C_4  and  C_6
REMARK    7  A    between atoms: C_7  and  C_8
REMARK    8  A    between atoms: C_8  and  C_9
REMARK    9  A    between atoms: C_14  and  O_15
REMARK   10  A    between atoms: O_15  and  C_16
REMARK                            x       y       z     vdW  Elec       q    Type
REMARK                         _______ _______ _______ _____ _____    ______ ____
ROOT
ATOM      1  C   UNL     1      98.399 104.417  95.946  0.00  0.00    +0.000 A 
ATOM      2  C   UNL     1      98.354 103.119  95.471  0.00  0.00    +0.000 A 
ATOM      3  N   UNL     1      98.776 102.282  96.470  0.00  0.00    +0.000 N 
ATOM      4  C   UNL     1      99.096 103.007  97.594  0.00  0.00    +0.000 A 
ATOM      5  C   UNL     1      99.546 102.581  98.850  0.00  0.00    +0.000 A 
ATOM      6  C   UNL     1      99.796 103.549  99.829  0.00  0.00    +0.000 A 
ATOM      7  C   UNL     1      99.622 104.901  99.539  0.00  0.00    +0.000 A 
ATOM      8  C   UNL     1      99.172 105.314  98.276  0.00  0.00    +0.000 A 
ATOM      9  C   UNL     1      98.891 104.350  97.287  0.00  0.00    +0.000 A 
ATOM     10  H   UNL     1      98.838 101.275  96.403  0.00  0.00    +0.000 HD
ENDROOT
BRANCH   6  11
ATOM     11  O   UNL     1     100.207 103.039 101.033  0.00  0.00    +0.000 OA
ATOM     12  C   UNL     1      99.537 101.872 101.494  0.00  0.00    +0.000 C 
ENDBRANCH   6  11
BRANCH   1  13
ATOM     13  C   UNL     1      98.002 105.653  95.197  0.00  0.00    +0.000 C 
BRANCH  13  14
ATOM     14  C   UNL     1      97.839 105.391  93.690  0.00  0.00    +0.000 C 
BRANCH  14  16
ATOM     15  C   UNL     1      96.598 107.436  93.821  0.00  0.00    +0.000 C 
ATOM     16  N   UNL     1      96.840 106.243  93.000  0.00  0.00    +0.000 NA
BRANCH  16  17
ATOM     17  C   UNL     1      97.277 106.605  91.637  0.00  0.00    +0.000 C 
BRANCH  17  18
ATOM     18  C   UNL     1      96.799 107.979  91.111  0.00  0.00    +0.000 C 
ATOM     19  C   UNL     1      97.976 108.713  90.458  0.00  0.00    +0.000 C 
ATOM     20  C   UNL     1      95.651 107.843  90.108  0.00  0.00    +0.000 C 
ENDBRANCH  17  18
ENDBRANCH  16  17
ENDBRANCH  14  16
ENDBRANCH  13  14
ENDBRANCH   1  13
TORSDOF 6
ENDMDL
MODEL 6
REMARK VINA RESULT:    -6.288      5.476      6.873
REMARK INTER + INTRA:          -8.964
REMARK INTER:                  -8.198
REMARK INTRA:                  -0.766
REMARK UNBOUND:                -0.470
REMARK  Name = 
REMARK  10 active torsions:
REMARK  status: ('A' for Active; 'I' for Inactive)
REMARK    1  A    between atoms: C_1  and  N_2
REMARK    2  A    between atoms: N_2  and  C_3
REMARK    3  A    between atoms: N_2  and  C_7
REMARK    4  A    between atoms: C_3  and  C_4
REMARK    5  A    between atoms: C_4  and  C_5
REMARK    6  A    between atoms: C_4  and  C_6
REMARK    7  A    between atoms: C_7  and  C_8
REMARK    8  A    between atoms: C_8  and  C_9
REMARK    9  A    between atoms: C_14  and  O_15
REMARK   10  A    between atoms: O_15  and  C_16
REMARK                            x       y       z     vdW  Elec       q    Type
REMARK                         _______ _______ _______ _____ _____    ______ ____
ROOT
ATOM      1  C   UNL     1      95.417 111.650  95.445  0.00  0.00    +0.000 A 
ATOM      2  C   UNL     1      94.167 111.118  95.189  0.00  0.00    +0.000 A 
ATOM      3  N   UNL     1      93.407 112.080  94.577  0.00  0.00    +0.000 N 
ATOM      4  C   UNL     1      94.138 113.235  94.424  0.00  0.00    +0.000 A 
ATOM      5  C   UNL     1      93.787 114.458  93.840  0.00  0.00    +0.000 A 
ATOM      6  C   UNL     1      94.742 115.482  93.817  0.00  0.00    +0.000 A 
ATOM      7  C   UNL     1      95.998 115.281  94.388  0.00  0.00    +0.000 A 
ATOM      8  C   UNL     1      96.335 114.050  94.970  0.00  0.00    +0.000 A 
ATOM      9  C   UNL     1      95.394 113.002  94.979  0.00  0.00    +0.000 A 
ATOM     10  H   UNL     1      92.451 111.964  94.271  0.00  0.00    +0.000 HD
ENDROOT
BRANCH   6  11
ATOM     11  O   UNL     1      94.321 116.632  93.203  0.00  0.00    +0.000 OA
ATOM     12  C   UNL     1      93.050 116.587  92.566  0.00  0.00    +0.000 C 
ENDBRANCH   6  11
BRANCH   1  13
ATOM     13  C   UNL     1      96.573 110.940  96.081  0.00  0.00    +0.000 C 
BRANCH  13  14
ATOM     14  C   UNL     1      96.132 109.673  96.835  0.00  0.00    +0.000 C 
BRANCH  14  16
ATOM     15  C   UNL     1      94.508 108.863  98.399  0.00  0.00    +0.000 C 
ATOM     16  N   UNL     1      95.515 109.906  98.164  0.00  0.00    +0.000 NA
BRANCH  16  17
ATOM     17  C   UNL     1      96.527 109.931  99.239  0.00  0.00    +0.000 C 
BRANCH  17  18
ATOM     18  C   UNL     1      96.721 111.287  99.960  0.00  0.00    +0.000 C 
ATOM     19  C   UNL     1      98.069 111.892  99.552  0.00  0.00    +0.000 C 
ATOM     20  C   UNL     1      95.593 112.272  99.644  0.00  0.00    +0.000 C 
ENDBRANCH  17  18
ENDBRANCH  16  17
ENDBRANCH  14  16
ENDBRANCH  13  14
ENDBRANCH   1  13
TORSDOF 6
ENDMDL
MODEL 7
REMARK VINA RESULT:    -6.285      1.753      2.549
REMARK INTER + INTRA:          -8.959
REMARK INTER:                  -8.121
REMARK INTRA:                  -0.838
REMARK UNBOUND:                -0.470
REMARK  Name = 
REMARK  10 active torsions:
REMARK  status: ('A' for Active; 'I' for Inactive)
REMARK    1  A    between atoms: C_1  and  N_2
REMARK    2  A    between atoms: N_2  and  C_3
REMARK    3  A    between atoms: N_2  and  C_7
REMARK    4  A    between atoms: C_3  and  C_4
REMARK    5  A    between atoms: C_4  and  C_5
REMARK    6  A    between atoms: C_4  and  C_6
REMARK    7  A    between atoms: C_7  and  C_8
REMARK    8  A    between atoms: C_8  and  C_9
REMARK    9  A    between atoms: C_14  and  O_15
REMARK   10  A    between atoms: O_15  and  C_16
REMARK                            x       y       z     vdW  Elec       q    Type
REMARK                         _______ _______ _______ _____ _____    ______ ____
ROOT
ATOM      1  C   UNL     1      96.815 107.748  93.277  0.00  0.00    +0.000 A 
ATOM      2  C   UNL     1      96.852 106.404  93.602  0.00  0.00    +0.000 A 
ATOM      3  N   UNL     1      97.472 105.732  92.582  0.00  0.00    +0.000 N 
ATOM      4  C   UNL     1      97.845 106.612  91.592  0.00  0.00    +0.000 A 
ATOM      5  C   UNL     1      98.517 106.384  90.385  0.00  0.00    +0.000 A 
ATOM      6  C   UNL     1      98.775 107.480  89.553  0.00  0.00    +0.000 A 
ATOM      7  C   UNL     1      98.344 108.755  89.918  0.00  0.00    +0.000 A 
ATOM      8  C   UNL     1      97.670 108.967  91.130  0.00  0.00    +0.000 A 
ATOM      9  C   UNL     1      97.426 107.879  91.990  0.00  0.00    +0.000 A 
ATOM     10  H   UNL     1      97.643 104.736  92.555  0.00  0.00    +0.000 HD
ENDROOT
BRANCH   6  11
ATOM     11  O   UNL     1      99.460 107.169  88.407  0.00  0.00    +0.000 OA
ATOM     12  C   UNL     1      99.222 105.881  87.852  0.00  0.00    +0.000 C 
ENDBRANCH   6  11
BRANCH   1  13
ATOM     13  C   UNL     1      96.248 108.851  94.118  0.00  0.00    +0.000 C 
BRANCH  13  14
ATOM     14  C   UNL     1      97.254 109.357  95.166  0.00  0.00    +0.000 C 
BRANCH  14  16
ATOM     15  C   UNL     1      95.492 108.652  96.629  0.00  0.00    +0.000 C 
ATOM     16  N   UNL     1      96.898 109.072  96.578  0.00  0.00    +0.000 NA
BRANCH  16  17
ATOM     17  C   UNL     1      97.787 108.053  97.172  0.00  0.00    +0.000 C 
BRANCH  17  18
ATOM     18  C   UNL     1      99.146 107.839  96.464  0.00  0.00    +0.000 C 
ATOM     19  C   UNL     1     100.261 108.478  97.299  0.00  0.00    +0.000 C 
ATOM     20  C   UNL     1      99.450 106.356  96.240  0.00  0.00    +0.000 C 
ENDBRANCH  17  18
ENDBRANCH  16  17
ENDBRANCH  14  16
ENDBRANCH  13  14
ENDBRANCH   1  13
TORSDOF 6
ENDMDL
MODEL 8
REMARK VINA RESULT:    -6.188      2.635      3.933
REMARK INTER + INTRA:          -8.828
REMARK INTER:                  -8.061
REMARK INTRA:                  -0.767
REMARK UNBOUND:                -0.470
REMARK  Name = 
REMARK  10 active torsions:
REMARK  status: ('A' for Active; 'I' for Inactive)
REMARK    1  A    between atoms: C_1  and  N_2
REMARK    2  A    between atoms: N_2  and  C_3
REMARK    3  A    between atoms: N_2  and  C_7
REMARK    4  A    between atoms: C_3  and  C_4
REMARK    5  A    between atoms: C_4  and  C_5
REMARK    6  A    between atoms: C_4  and  C_6
REMARK    7  A    between atoms: C_7  and  C_8
REMARK    8  A    between atoms: C_8  and  C_9
REMARK    9  A    between atoms: C_14  and  O_15
REMARK   10  A    between atoms: O_15  and  C_16
REMARK                            x       y       z     vdW  Elec       q    Type
REMARK                         _______ _______ _______ _____ _____    ______ ____
ROOT
ATOM      1  C   UNL     1      96.586 108.925  94.816  0.00  0.00    +0.000 A 
ATOM      2  C   UNL     1      95.314 109.464  94.748  0.00  0.00    +0.000 A 
ATOM      3  N   UNL     1      94.682 108.934  93.655  0.00  0.00    +0.000 N 
ATOM      4  C   UNL     1      95.515 108.055  93.004  0.00  0.00    +0.000 A 
ATOM      5  C   UNL     1      95.293 107.272  91.865  0.00  0.00    +0.000 A 
ATOM      6  C   UNL     1      96.332 106.449  91.412  0.00  0.00    +0.000 A 
ATOM      7  C   UNL     1      97.559 106.441  92.074  0.00  0.00    +0.000 A 
ATOM      8  C   UNL     1      97.767 107.233  93.213  0.00  0.00    +0.000 A 
ATOM      9  C   UNL     1      96.724 108.046  93.697  0.00  0.00    +0.000 A 
ATOM     10  H   UNL     1      93.737 109.146  93.365  0.00  0.00    +0.000 HD
ENDROOT
BRANCH   6  11
ATOM     11  O   UNL     1      96.018 105.699  90.309  0.00  0.00    +0.000 OA
ATOM     12  C   UNL     1      97.008 105.616  89.291  0.00  0.00    +0.000 C 
ENDBRANCH   6  11
BRANCH   1  13
ATOM     13  C   UNL     1      97.617 109.207  95.868  0.00  0.00    +0.000 C 
BRANCH  13  14
ATOM     14  C   UNL     1      97.773 108.037  96.855  0.00  0.00    +0.000 C 
BRANCH  14  16
ATOM     15  C   UNL     1     100.160 107.880  96.989  0.00  0.00    +0.000 C 
ATOM     16  N   UNL     1      98.940 107.154  96.614  0.00  0.00    +0.000 NA
BRANCH  16  17
ATOM     17  C   UNL     1      98.823 105.880  97.351  0.00  0.00    +0.000 C 
BRANCH  17  18
ATOM     18  C   UNL     1      98.571 104.617  96.493  0.00  0.00    +0.000 C 
ATOM     19  C   UNL     1      98.865 103.366  97.329  0.00  0.00    +0.000 C 
ATOM     20  C   UNL     1      97.137 104.560  95.962  0.00  0.00    +0.000 C 
ENDBRANCH  17  18
ENDBRANCH  16  17
ENDBRANCH  14  16
ENDBRANCH  13  14
ENDBRANCH   1  13
TORSDOF 6
ENDMDL
MODEL 9
REMARK VINA RESULT:    -6.124      2.491      3.852
REMARK INTER + INTRA:          -8.742
REMARK INTER:                  -8.033
REMARK INTRA:                  -0.709
REMARK UNBOUND:                -0.470
REMARK  Name = 
REMARK  10 active torsions:
REMARK  status: ('A' for Active; 'I' for Inactive)
REMARK    1  A    between atoms: C_1  and  N_2
REMARK    2  A    between atoms: N_2  and  C_3
REMARK    3  A    between atoms: N_2  and  C_7
REMARK    4  A    between atoms: C_3  and  C_4
REMARK    5  A    between atoms: C_4  and  C_5
REMARK    6  A    between atoms: C_4  and  C_6
REMARK    7  A    between atoms: C_7  and  C_8
REMARK    8  A    between atoms: C_8  and  C_9
REMARK    9  A    between atoms: C_14  and  O_15
REMARK   10  A    between atoms: O_15  and  C_16
REMARK                            x       y       z     vdW  Elec       q    Type
REMARK                         _______ _______ _______ _____ _____    ______ ____
ROOT
ATOM      1  C   UNL     1      96.337 109.176  95.242  0.00  0.00    +0.000 A 
ATOM      2  C   UNL     1      95.125 109.804  95.025  0.00  0.00    +0.000 A 
ATOM      3  N   UNL     1      94.589 109.314  93.863  0.00  0.00    +0.000 N 
ATOM      4  C   UNL     1      95.428 108.373  93.314  0.00  0.00    +0.000 A 
ATOM      5  C   UNL     1      95.287 107.601  92.154  0.00  0.00    +0.000 A 
ATOM      6  C   UNL     1      96.310 106.703  91.826  0.00  0.00    +0.000 A 
ATOM      7  C   UNL     1      97.446 106.611  92.629  0.00  0.00    +0.000 A 
ATOM      8  C   UNL     1      97.574 107.392  93.786  0.00  0.00    +0.000 A 
ATOM      9  C   UNL     1      96.542 108.282  94.144  0.00  0.00    +0.000 A 
ATOM     10  H   UNL     1      93.703 109.592  93.464  0.00  0.00    +0.000 HD
ENDROOT
BRANCH   6  11
ATOM     11  O   UNL     1      96.075 105.971  90.692  0.00  0.00    +0.000 OA
ATOM     12  C   UNL     1      95.071 106.463  89.812  0.00  0.00    +0.000 C 
ENDBRANCH   6  11
BRANCH   1  13
ATOM     13  C   UNL     1      97.253 109.389  96.409  0.00  0.00    +0.000 C 
BRANCH  13  14
ATOM     14  C   UNL     1      97.978 110.744  96.338  0.00  0.00    +0.000 C 
BRANCH  14  16
ATOM     15  C   UNL     1      98.481 111.967  98.336  0.00  0.00    +0.000 C 
ATOM     16  N   UNL     1      97.482 111.781  97.275  0.00  0.00    +0.000 NA
BRANCH  16  17
ATOM     17  C   UNL     1      97.188 113.050  96.582  0.00  0.00    +0.000 C 
BRANCH  17  18
ATOM     18  C   UNL     1      97.078 112.975  95.040  0.00  0.00    +0.000 C 
ATOM     19  C   UNL     1      95.719 113.530  94.598  0.00  0.00    +0.000 C 
ATOM     20  C   UNL     1      98.204 113.745  94.345  0.00  0.00    +0.000 C 
ENDBRANCH  17  18
ENDBRANCH  16  17
ENDBRANCH  14  16
ENDBRANCH  13  14
ENDBRANCH   1  13
TORSDOF 6
ENDMDL
