MODEL 1
REMARK VINA RESULT:    -7.455      0.000      0.000
REMARK INTER + INTRA:         -11.332
REMARK INTER:                 -10.506
REMARK INTRA:                  -0.826
REMARK UNBOUND:                -0.826
REMARK  Name = 
REMARK  12 active torsions:
REMARK  status: ('A' for Active; 'I' for Inactive)
REMARK    1  A    between atoms: C_1  and  C_2
REMARK    2  A    between atoms: C_2  and  C_3
REMARK    3  A    between atoms: C_2  and  N_4
REMARK    4  A    between atoms: N_4  and  C_5
REMARK    5  A    between atoms: N_4  and  C_9
REMARK    6  A    between atoms: C_5  and  C_6
REMARK    7  A    between atoms: C_6  and  C_7
REMARK    8  A    between atoms: C_6  and  C_8
REMARK    9  A    between atoms: C_9  and  C_10
REMARK   10  A    between atoms: C_10  and  C_11
REMARK   11  A    between atoms: C_16  and  O_17
REMARK   12  A    between atoms: O_17  and  C_18
REMARK                            x       y       z     vdW  Elec       q    Type
REMARK                         _______ _______ _______ _____ _____    ______ ____
ROOT
ATOM      1  C   UNL     1      96.630 107.771  93.410  0.00  0.00    +0.000 A 
ATOM      2  C   UNL     1      95.372 107.731  92.837  0.00  0.00    +0.000 A 
ATOM      3  N   UNL     1      94.598 108.696  93.414  0.00  0.00    +0.000 N 
ATOM      4  C   UNL     1      95.289 109.312  94.426  0.00  0.00    +0.000 A 
ATOM      5  C   UNL     1      94.883 110.323  95.307  0.00  0.00    +0.000 A 
ATOM      6  C   UNL     1      95.793 110.764  96.273  0.00  0.00    +0.000 A 
ATOM      7  C   UNL     1      97.068 110.203  96.343  0.00  0.00    +0.000 A 
ATOM      8  C   UNL     1      97.465 109.203  95.441  0.00  0.00    +0.000 A 
ATOM      9  C   UNL     1      96.563 108.746  94.460  0.00  0.00    +0.000 A 
ATOM     10  H   UNL     1      93.647 108.915  93.151  0.00  0.00    +0.000 HD
ENDROOT
BRANCH   6  11
ATOM     11  O   UNL     1      95.304 111.752  97.088  0.00  0.00    +0.000 OA
ATOM     12  C   UNL     1      95.314 113.074  96.569  0.00  0.00    +0.000 C 
ENDBRANCH   6  11
BRANCH   1  13
ATOM     13  C   UNL     1      97.815 106.921  93.049  0.00  0.00    +0.000 C 
BRANCH  13  14
ATOM     14  C   UNL     1      97.533 105.803  92.015  0.00  0.00    +0.000 C 
BRANCH  14  15
ATOM     15  N   UNL     1      97.348 106.206  90.598  0.00  0.00    +0.000 NA
BRANCH  15  17
ATOM     16  C   UNL     1      99.156 106.458  88.809  0.00  0.00    +0.000 C 
ATOM     17  C   UNL     1      98.490 107.010  90.081  0.00  0.00    +0.000 C 
ATOM     18  C   UNL     1      98.132 108.487  89.848  0.00  0.00    +0.000 C 
ENDBRANCH  15  17
BRANCH  15  19
ATOM     19  C   UNL     1      97.016 105.056  89.726  0.00  0.00    +0.000 C 
BRANCH  19  20
ATOM     20  C   UNL     1      95.620 105.038  89.047  0.00  0.00    +0.000 C 
ATOM     21  C   UNL     1      94.837 103.750  89.307  0.00  0.00    +0.000 C 
ATOM     22  C   UNL     1      94.793 106.229  89.541  0.00  0.00    +0.000 C 
ENDBRANCH  19  20
ENDBRANCH  15  19
ENDBRANCH  14  15
ENDBRANCH  13  14
ENDBRANCH   1  13
TORSDOF 7
ENDMDL
MODEL 2
REMARK VINA RESULT:    -7.254      3.013      7.691
REMARK INTER + INTRA:         -11.049
REMARK INTER:                 -10.035
REMARK INTRA:                  -1.014
REMARK UNBOUND:                -0.826
REMARK  Name = 
REMARK  12 active torsions:
REMARK  status: ('A' for Active; 'I' for Inactive)
REMARK    1  A    between atoms: C_1  and  C_2
REMARK    2  A    between atoms: C_2  and  C_3
REMARK    3  A    between atoms: C_2  and  N_4
REMARK    4  A    between atoms: N_4  and  C_5
REMARK    5  A    between atoms: N_4  and  C_9
REMARK    6  A    between atoms: C_5  and  C_6
REMARK    7  A    between atoms: C_6  and  C_7
REMARK    8  A    between atoms: C_6  and  C_8
REMARK    9  A    between atoms: C_9  and  C_10
REMARK   10  A    between atoms: C_10  and  C_11
REMARK   11  A    between atoms: C_16  and  O_17
REMARK   12  A    between atoms: O_17  and  C_18
REMARK                            x       y       z     vdW  Elec       q    Type
REMARK                         _______ _______ _______ _____ _____    ______ ____
ROOT
ATOM      1  C   UNL     1      96.900 108.458  93.600  0.00  0.00    +0.000 A 
ATOM      2  C   UNL     1      96.475 107.307  94.237  0.00  0.00    +0.000 A 
ATOM      3  N   UNL     1      96.706 106.241  93.415  0.00  0.00    +0.000 N 
ATOM      4  C   UNL     1      97.188 106.675  92.207  0.00  0.00    +0.000 A 
ATOM      5  C   UNL     1      97.526 105.945  91.059  0.00  0.00    +0.000 A 
ATOM      6  C   UNL     1      97.983 106.647  89.939  0.00  0.00    +0.000 A 
ATOM      7  C   UNL     1      98.097 108.036  89.981  0.00  0.00    +0.000 A 
ATOM      8  C   UNL     1      97.771 108.751  91.145  0.00  0.00    +0.000 A 
ATOM      9  C   UNL     1      97.310 108.062  92.284  0.00  0.00    +0.000 A 
ATOM     10  H   UNL     1      96.530 105.274  93.651  0.00  0.00    +0.000 HD
ENDROOT
BRANCH   6  11
ATOM     11  O   UNL     1      98.285 105.848  88.867  0.00  0.00    +0.000 OA
ATOM     12  C   UNL     1      99.517 106.101  88.206  0.00  0.00    +0.000 C 
ENDBRANCH   6  11
BRANCH   1  13
ATOM     13  C   UNL     1      96.883 109.855  94.153  0.00  0.00    +0.000 C 
BRANCH  13  14
ATOM     14  C   UNL     1      95.920 110.080  95.344  0.00  0.00    +0.000 C 
BRANCH  14  15
ATOM     15  N   UNL     1      96.505 110.104  96.708  0.00  0.00    +0.000 NA
BRANCH  15  17
ATOM     16  C   UNL     1      98.662 111.415  97.112  0.00  0.00    +0.000 C 
ATOM     17  C   UNL     1      97.995 110.096  96.688  0.00  0.00    +0.000 C 
ATOM     18  C   UNL     1      98.603 108.949  97.512  0.00  0.00    +0.000 C 
ENDBRANCH  15  17
BRANCH  15  19
ATOM     19  C   UNL     1      95.951 111.196  97.539  0.00  0.00    +0.000 C 
BRANCH  19  20
ATOM     20  C   UNL     1      95.277 110.816  98.884  0.00  0.00    +0.000 C 
ATOM     21  C   UNL     1      94.510 109.494  98.826  0.00  0.00    +0.000 C 
ATOM     22  C   UNL     1      96.340 110.724  99.984  0.00  0.00    +0.000 C 
ENDBRANCH  19  20
ENDBRANCH  15  19
ENDBRANCH  14  15
ENDBRANCH  13  14
ENDBRANCH   1  13
TORSDOF 7
ENDMDL
MODEL 3
REMARK VINA RESULT:    -7.231      2.996      7.497
REMARK INTER + INTRA:         -11.016
REMARK INTER:                 -10.260
REMARK INTRA:                  -0.756
REMARK UNBOUND:                -0.826
REMARK  Name = 
REMARK  12 active torsions:
REMARK  status: ('A' for Active; 'I' for Inactive)
REMARK    1  A    between atoms: C_1  and  C_2
REMARK    2  A    between atoms: C_2  and  C_3
REMARK    3  A    between atoms: C_2  and  N_4
REMARK    4  A    between atoms: N_4  and  C_5
REMARK    5  A    between atoms: N_4  and  C_9
REMARK    6  A    between atoms: C_5  and  C_6
REMARK    7  A    between atoms: C_6  and  C_7
REMARK    8  A    between atoms: C_6  and  C_8
REMARK    9  A    between atoms: C_9  and  C_10
REMARK   10  A    between atoms: C_10  and  C_11
REMARK   11  A    between atoms: C_16  and  O_17
REMARK   12  A    between atoms: O_17  and  C_18
REMARK                            x       y       z     vdW  Elec       q    Type
REMARK                         _______ _______ _______ _____ _____    ______ ____
ROOT
ATOM      1  C   UNL     1      96.842 108.210  93.843  0.00  0.00    +0.000 A 
ATOM      2  C   UNL     1      96.560 107.026  94.498  0.00  0.00    +0.000 A 
ATOM      3  N   UNL     1      96.876 105.984  93.673  0.00  0.00    +0.000 N 
ATOM      4  C   UNL     1      97.273 106.457  92.449  0.00  0.00    +0.000 A 
ATOM      5  C   UNL     1      97.650 105.758  91.295  0.00  0.00    +0.000 A 
ATOM      6  C   UNL     1      97.997 106.494  90.158  0.00  0.00    +0.000 A 
ATOM      7  C   UNL     1      97.965 107.888  90.190  0.00  0.00    +0.000 A 
ATOM      8  C   UNL     1      97.602 108.574  91.360  0.00  0.00    +0.000 A 
ATOM      9  C   UNL     1      97.250 107.849  92.516  0.00  0.00    +0.000 A 
ATOM     10  H   UNL     1      96.810 105.006  93.919  0.00  0.00    +0.000 HD
ENDROOT
BRANCH   6  11
ATOM     11  O   UNL     1      98.348 105.723  89.080  0.00  0.00    +0.000 OA
ATOM     12  C   UNL     1      99.488 106.138  88.340  0.00  0.00    +0.000 C 
ENDBRANCH   6  11
BRANCH   1  13
ATOM     13  C   UNL     1      96.694 109.603  94.388  0.00  0.00    +0.000 C 
BRANCH  13  14
ATOM     14  C   UNL     1      95.261 109.988  94.831  0.00  0.00    +0.000 C 
BRANCH  14  15
ATOM     15  N   UNL     1      95.105 110.673  96.138  0.00  0.00    +0.000 NA
BRANCH  15  17
ATOM     16  C   UNL     1      96.277 112.943  96.046  0.00  0.00    +0.000 C 
ATOM     17  C   UNL     1      94.960 112.149  95.993  0.00  0.00    +0.000 C 
ATOM     18  C   UNL     1      94.188 112.558  94.728  0.00  0.00    +0.000 C 
ENDBRANCH  15  17
BRANCH  15  19
ATOM     19  C   UNL     1      94.032 110.073  96.963  0.00  0.00    +0.000 C 
BRANCH  19  20
ATOM     20  C   UNL     1      94.426 109.463  98.336  0.00  0.00    +0.000 C 
ATOM     21  C   UNL     1      95.240 108.174  98.215  0.00  0.00    +0.000 C 
ATOM     22  C   UNL     1      95.234 110.487  99.139  0.00  0.00    +0.000 C 
ENDBRANCH  19  20
ENDBRANCH  15  19
ENDBRANCH  14  15
ENDBRANCH  13  14
ENDBRANCH   1  13
TORSDOF 7
ENDMDL
MODEL 4
REMARK VINA RESULT:    -7.127      2.950      7.668
REMARK INTER + INTRA:         -10.869
REMARK INTER:                  -9.866
REMARK INTRA:                  -1.003
REMARK UNBOUND:                -0.826
REMARK  Name = 
REMARK  12 active torsions:
REMARK  status: ('A' for Active; 'I' for Inactive)
REMARK    1  A    between atoms: C_1  and  C_2
REMARK    2  A    between atoms: C_2  and  C_3
REMARK    3  A    between atoms: C_2  and  N_4
REMARK    4  A    between atoms: N_4  and  C_5
REMARK    5  A    between atoms: N_4  and  C_9
REMARK    6  A    between atoms: C_5  and  C_6
REMARK    7  A    between atoms: C_6  and  C_7
REMARK    8  A    between atoms: C_6  and  C_8
REMARK    9  A    between atoms: C_9  and  C_10
REMARK   10  A    between atoms: C_10  and  C_11
REMARK   11  A    between atoms: C_16  and  O_17
REMARK   12  A    between atoms: O_17  and  C_18
REMARK                            x       y       z     vdW  Elec       q    Type
REMARK                         _______ _______ _______ _____ _____    ______ ____
ROOT
ATOM      1  C   UNL     1      96.983 107.983  93.701  0.00  0.00    +0.000 A 
ATOM      2  C   UNL     1      96.783 106.777  94.346  0.00  0.00    +0.000 A 
ATOM      3  N   UNL     1      97.088 105.763  93.483  0.00  0.00    +0.000 N 
ATOM      4  C   UNL     1      97.394 106.274  92.247  0.00  0.00    +0.000 A 
ATOM      5  C   UNL     1      97.728 105.611  91.059  0.00  0.00    +0.000 A 
ATOM      6  C   UNL     1      97.980 106.382  89.920  0.00  0.00    +0.000 A 
ATOM      7  C   UNL     1      97.899 107.773  89.983  0.00  0.00    +0.000 A 
ATOM      8  C   UNL     1      97.581 108.422  91.186  0.00  0.00    +0.000 A 
ATOM      9  C   UNL     1      97.325 107.663  92.346  0.00  0.00    +0.000 A 
ATOM     10  H   UNL     1      97.071 104.780  93.711  0.00  0.00    +0.000 HD
ENDROOT
BRANCH   6  11
ATOM     11  O   UNL     1      98.295 105.644  88.807  0.00  0.00    +0.000 OA
ATOM     12  C   UNL     1      99.424 106.068  88.057  0.00  0.00    +0.000 C 
ENDBRANCH   6  11
BRANCH   1  13
ATOM     13  C   UNL     1      96.817 109.359  94.283  0.00  0.00    +0.000 C 
BRANCH  13  14
ATOM     14  C   UNL     1      95.426 109.650  94.898  0.00  0.00    +0.000 C 
BRANCH  14  15
ATOM     15  N   UNL     1      95.380 110.127  96.303  0.00  0.00    +0.000 NA
BRANCH  15  17
ATOM     16  C   UNL     1      95.947 108.083  97.730  0.00  0.00    +0.000 C 
ATOM     17  C   UNL     1      94.884 109.082  97.242  0.00  0.00    +0.000 C 
ATOM     18  C   UNL     1      94.158 109.666  98.465  0.00  0.00    +0.000 C 
ENDBRANCH  15  17
BRANCH  15  19
ATOM     19  C   UNL     1      96.664 110.723  96.737  0.00  0.00    +0.000 C 
BRANCH  19  20
ATOM     20  C   UNL     1      96.794 112.269  96.708  0.00  0.00    +0.000 C 
ATOM     21  C   UNL     1      97.511 112.794  95.464  0.00  0.00    +0.000 C 
ATOM     22  C   UNL     1      95.401 112.903  96.781  0.00  0.00    +0.000 C 
ENDBRANCH  19  20
ENDBRANCH  15  19
ENDBRANCH  14  15
ENDBRANCH  13  14
ENDBRANCH   1  13
TORSDOF 7
ENDMDL
MODEL 5
REMARK VINA RESULT:    -6.842      3.012      7.562
REMARK INTER + INTRA:         -10.469
REMARK INTER:                  -9.523
REMARK INTRA:                  -0.946
REMARK UNBOUND:                -0.826
REMARK  Name = 
REMARK  12 active torsions:
REMARK  status: ('A' for Active; 'I' for Inactive)
REMARK    1  A    between atoms: C_1  and  C_2
REMARK    2  A    between atoms: C_2  and  C_3
REMARK    3  A    between atoms: C_2  and  N_4
REMARK    4  A    between atoms: N_4  and  C_5
REMARK    5  A    between atoms: N_4  and  C_9
REMARK    6  A    between atoms: C_5  and  C_6
REMARK    7  A    between atoms: C_6  and  C_7
REMARK    8  A    between atoms: C_6  and  C_8
REMARK    9  A    between atoms: C_9  and  C_10
REMARK   10  A    between atoms: C_10  and  C_11
REMARK   11  A    between atoms: C_16  and  O_17
REMARK   12  A    between atoms: O_17  and  C_18
REMARK                            x       y       z     vdW  Elec       q    Type
REMARK                         _______ _______ _______ _____ _____    ______ ____
ROOT
ATOM      1  C   UNL     1      96.422 108.546  94.460  0.00  0.00    +0.000 A 
ATOM      2  C   UNL     1      95.150 109.078  94.359  0.00  0.00    +0.000 A 
ATOM      3  N   UNL     1      94.576 108.626  93.205  0.00  0.00    +0.000 N 
ATOM      4  C   UNL     1      95.480 107.880  92.491  0.00  0.00    +0.000 A 
ATOM      5  C   UNL     1      95.344 107.256  91.245  0.00  0.00    +0.000 A 
ATOM      6  C   UNL     1      96.443 106.564  90.727  0.00  0.00    +0.000 A 
ATOM      7  C   UNL     1      97.636 106.504  91.448  0.00  0.00    +0.000 A 
ATOM      8  C   UNL     1      97.750 107.120  92.705  0.00  0.00    +0.000 A 
ATOM      9  C   UNL     1      96.653 107.821  93.244  0.00  0.00    +0.000 A 
ATOM     10  H   UNL     1      93.632 108.825  92.907  0.00  0.00    +0.000 HD
ENDROOT
BRANCH   6  11
ATOM     11  O   UNL     1      96.215 105.991  89.503  0.00  0.00    +0.000 OA
ATOM     12  C   UNL     1      95.754 104.647  89.501  0.00  0.00    +0.000 C 
ENDBRANCH   6  11
BRANCH   1  13
ATOM     13  C   UNL     1      97.395 108.735  95.589  0.00  0.00    +0.000 C 
BRANCH  13  14
ATOM     14  C   UNL     1      97.513 110.185  96.120  0.00  0.00    +0.000 C 
BRANCH  14  15
ATOM     15  N   UNL     1      97.366 110.398  97.581  0.00  0.00    +0.000 NA
BRANCH  15  17
ATOM     16  C   UNL     1      98.198 111.751  99.585  0.00  0.00    +0.000 C 
ATOM     17  C   UNL     1      98.426 111.286  98.137  0.00  0.00    +0.000 C 
ATOM     18  C   UNL     1      99.836 110.681  98.030  0.00  0.00    +0.000 C 
ENDBRANCH  15  17
BRANCH  15  19
ATOM     19  C   UNL     1      96.001 110.838  97.951  0.00  0.00    +0.000 C 
BRANCH  19  20
ATOM     20  C   UNL     1      95.146 109.889  98.833  0.00  0.00    +0.000 C 
ATOM     21  C   UNL     1      93.849 109.440  98.159  0.00  0.00    +0.000 C 
ATOM     22  C   UNL     1      95.969 108.650  99.201  0.00  0.00    +0.000 C 
ENDBRANCH  19  20
ENDBRANCH  15  19
ENDBRANCH  14  15
ENDBRANCH  13  14
ENDBRANCH   1  13
TORSDOF 7
ENDMDL
MODEL 6
REMARK VINA RESULT:    -6.829      3.771      6.984
REMARK INTER + INTRA:         -10.449
REMARK INTER:                  -9.241
REMARK INTRA:                  -1.208
REMARK UNBOUND:                -0.826
REMARK  Name = 
REMARK  12 active torsions:
REMARK  status: ('A' for Active; 'I' for Inactive)
REMARK    1  A    between atoms: C_1  and  C_2
REMARK    2  A    between atoms: C_2  and  C_3
REMARK    3  A    between atoms: C_2  and  N_4
REMARK    4  A    between atoms: N_4  and  C_5
REMARK    5  A    between atoms: N_4  and  C_9
REMARK    6  A    between atoms: C_5  and  C_6
REMARK    7  A    between atoms: C_6  and  C_7
REMARK    8  A    between atoms: C_6  and  C_8
REMARK    9  A    between atoms: C_9  and  C_10
REMARK   10  A    between atoms: C_10  and  C_11
REMARK   11  A    between atoms: C_16  and  O_17
REMARK   12  A    between atoms: O_17  and  C_18
REMARK                            x       y       z     vdW  Elec       q    Type
REMARK                         _______ _______ _______ _____ _____    ______ ____
ROOT
ATOM      1  C   UNL     1      96.594 108.273  94.486  0.00  0.00    +0.000 A 
ATOM      2  C   UNL     1      95.387 108.944  94.412  0.00  0.00    +0.000 A 
ATOM      3  N   UNL     1      94.762 108.593  93.250  0.00  0.00    +0.000 N 
ATOM      4  C   UNL     1      95.575 107.776  92.506  0.00  0.00    +0.000 A 
ATOM      5  C   UNL     1      95.366 107.210  91.242  0.00  0.00    +0.000 A 
ATOM      6  C   UNL     1      96.380 106.418  90.696  0.00  0.00    +0.000 A 
ATOM      7  C   UNL     1      97.562 106.205  91.405  0.00  0.00    +0.000 A 
ATOM      8  C   UNL     1      97.749 106.765  92.679  0.00  0.00    +0.000 A 
ATOM      9  C   UNL     1      96.737 107.565  93.247  0.00  0.00    +0.000 A 
ATOM     10  H   UNL     1      93.844 108.905  92.965  0.00  0.00    +0.000 HD
ENDROOT
BRANCH   6  11
ATOM     11  O   UNL     1      96.085 105.911  89.456  0.00  0.00    +0.000 OA
ATOM     12  C   UNL     1      97.131 105.230  88.777  0.00  0.00    +0.000 C 
ENDBRANCH   6  11
BRANCH   1  13
ATOM     13  C   UNL     1      97.587 108.319  95.614  0.00  0.00    +0.000 C 
BRANCH  13  14
ATOM     14  C   UNL     1      97.405 107.227  96.696  0.00  0.00    +0.000 C 
BRANCH  14  15
ATOM     15  N   UNL     1      98.586 106.397  97.042  0.00  0.00    +0.000 NA
BRANCH  15  17
ATOM     16  C   UNL     1      98.500 104.242  95.670  0.00  0.00    +0.000 C 
ATOM     17  C   UNL     1      98.281 104.939  97.023  0.00  0.00    +0.000 C 
ATOM     18  C   UNL     1      99.032 104.152  98.110  0.00  0.00    +0.000 C 
ENDBRANCH  15  17
BRANCH  15  19
ATOM     19  C   UNL     1      99.774 106.743  96.230  0.00  0.00    +0.000 C 
BRANCH  19  20
ATOM     20  C   UNL     1     101.062 107.184  96.977  0.00  0.00    +0.000 C 
ATOM     21  C   UNL     1     100.805 107.629  98.417  0.00  0.00    +0.000 C 
ATOM     22  C   UNL     1     102.070 106.031  96.986  0.00  0.00    +0.000 C 
ENDBRANCH  19  20
ENDBRANCH  15  19
ENDBRANCH  14  15
ENDBRANCH  13  14
ENDBRANCH   1  13
TORSDOF 7
ENDMDL
MODEL 7
REMARK VINA RESULT:    -6.742      2.782      7.516
REMARK INTER + INTRA:         -10.327
REMARK INTER:                  -9.688
REMARK INTRA:                  -0.639
REMARK UNBOUND:                -0.826
REMARK  Name = 
REMARK  12 active torsions:
REMARK  status: ('A' for Active; 'I' for Inactive)
REMARK    1  A    between atoms: C_1  and  C_2
REMARK    2  A    between atoms: C_2  and  C_3
REMARK    3  A    between atoms: C_2  and  N_4
REMARK    4  A    between atoms: N_4  and  C_5
REMARK    5  A    between atoms: N_4  and  C_9
REMARK    6  A    between atoms: C_5  and  C_6
REMARK    7  A    between atoms: C_6  and  C_7
REMARK    8  A    between atoms: C_6  and  C_8
REMARK    9  A    between atoms: C_9  and  C_10
REMARK   10  A    between atoms: C_10  and  C_11
REMARK   11  A    between atoms: C_16  and  O_17
REMARK   12  A    between atoms: O_17  and  C_18
REMARK                            x       y       z     vdW  Elec       q    Type
REMARK                         _______ _______ _______ _____ _____    ______ ____
ROOT
ATOM      1  C   UNL     1      96.449 108.560  94.494  0.00  0.00    +0.000 A 
ATOM      2  C   UNL     1      95.198 109.129  94.347  0.00  0.00    +0.000 A 
ATOM      3  N   UNL     1      94.624 108.638  93.209  0.00  0.00    +0.000 N 
ATOM      4  C   UNL     1      95.511 107.826  92.548  0.00  0.00    +0.000 A 
ATOM      5  C   UNL     1      95.371 107.143  91.333  0.00  0.00    +0.000 A 
ATOM      6  C   UNL     1      96.452 106.388  90.870  0.00  0.00    +0.000 A 
ATOM      7  C   UNL     1      97.632 106.325  91.611  0.00  0.00    +0.000 A 
ATOM      8  C   UNL     1      97.750 107.001  92.836  0.00  0.00    +0.000 A 
ATOM      9  C   UNL     1      96.671 107.766  93.321  0.00  0.00    +0.000 A 
ATOM     10  H   UNL     1      93.692 108.854  92.887  0.00  0.00    +0.000 HD
ENDROOT
BRANCH   6  11
ATOM     11  O   UNL     1      96.221 105.760  89.673  0.00  0.00    +0.000 OA
ATOM     12  C   UNL     1      97.352 105.218  89.005  0.00  0.00    +0.000 C 
ENDBRANCH   6  11
BRANCH   1  13
ATOM     13  C   UNL     1      97.413 108.775  95.627  0.00  0.00    +0.000 C 
BRANCH  13  14
ATOM     14  C   UNL     1      96.769 109.223  96.963  0.00  0.00    +0.000 C 
BRANCH  14  15
ATOM     15  N   UNL     1      96.135 110.564  97.006  0.00  0.00    +0.000 NA
BRANCH  15  17
ATOM     16  C   UNL     1      94.388 109.694  98.658  0.00  0.00    +0.000 C 
ATOM     17  C   UNL     1      95.387 110.799  98.274  0.00  0.00    +0.000 C 
ATOM     18  C   UNL     1      96.307 111.071  99.475  0.00  0.00    +0.000 C 
ENDBRANCH  15  17
BRANCH  15  19
ATOM     19  C   UNL     1      97.093 111.649  96.699  0.00  0.00    +0.000 C 
BRANCH  19  20
ATOM     20  C   UNL     1      97.005 112.322  95.303  0.00  0.00    +0.000 C 
ATOM     21  C   UNL     1      95.724 113.133  95.100  0.00  0.00    +0.000 C 
ATOM     22  C   UNL     1      98.212 113.245  95.100  0.00  0.00    +0.000 C 
ENDBRANCH  19  20
ENDBRANCH  15  19
ENDBRANCH  14  15
ENDBRANCH  13  14
ENDBRANCH   1  13
TORSDOF 7
ENDMDL
MODEL 8
REMARK VINA RESULT:    -6.719      3.632      6.461
REMARK INTER + INTRA:         -10.295
REMARK INTER:                  -9.200
REMARK INTRA:                  -1.095
REMARK UNBOUND:                -0.826
REMARK  Name = 
REMARK  12 active torsions:
REMARK  status: ('A' for Active; 'I' for Inactive)
REMARK    1  A    between atoms: C_1  and  C_2
REMARK    2  A    between atoms: C_2  and  C_3
REMARK    3  A    between atoms: C_2  and  N_4
REMARK    4  A    between atoms: N_4  and  C_5
REMARK    5  A    between atoms: N_4  and  C_9
REMARK    6  A    between atoms: C_5  and  C_6
REMARK    7  A    between atoms: C_6  and  C_7
REMARK    8  A    between atoms: C_6  and  C_8
REMARK    9  A    between atoms: C_9  and  C_10
REMARK   10  A    between atoms: C_10  and  C_11
REMARK   11  A    between atoms: C_16  and  O_17
REMARK   12  A    between atoms: O_17  and  C_18
REMARK                            x       y       z     vdW  Elec       q    Type
REMARK                         _______ _______ _______ _____ _____    ______ ____
ROOT
ATOM      1  C   UNL     1      96.593 108.734  94.713  0.00  0.00    +0.000 A 
ATOM      2  C   UNL     1      95.329 109.294  94.713  0.00  0.00    +0.000 A 
ATOM      3  N   UNL     1      94.651 108.845  93.615  0.00  0.00    +0.000 N 
ATOM      4  C   UNL     1      95.476 108.073  92.836  0.00  0.00    +0.000 A 
ATOM      5  C   UNL     1      95.223 107.442  91.611  0.00  0.00    +0.000 A 
ATOM      6  C   UNL     1      96.260 106.721  91.012  0.00  0.00    +0.000 A 
ATOM      7  C   UNL     1      97.507 106.640  91.632  0.00  0.00    +0.000 A 
ATOM      8  C   UNL     1      97.739 107.264  92.869  0.00  0.00    +0.000 A 
ATOM      9  C   UNL     1      96.705 107.994  93.489  0.00  0.00    +0.000 A 
ATOM     10  H   UNL     1      93.690 109.064  93.394  0.00  0.00    +0.000 HD
ENDROOT
BRANCH   6  11
ATOM     11  O   UNL     1      95.919 106.143  89.817  0.00  0.00    +0.000 OA
ATOM     12  C   UNL     1      96.697 105.031  89.397  0.00  0.00    +0.000 C 
ENDBRANCH   6  11
BRANCH   1  13
ATOM     13  C   UNL     1      97.660 108.911  95.756  0.00  0.00    +0.000 C 
BRANCH  13  14
ATOM     14  C   UNL     1      98.089 107.614  96.485  0.00  0.00    +0.000 C 
BRANCH  14  15
ATOM     15  N   UNL     1      99.380 106.996  96.090  0.00  0.00    +0.000 NA
BRANCH  15  17
ATOM     16  C   UNL     1     100.183 107.779  98.387  0.00  0.00    +0.000 C 
ATOM     17  C   UNL     1     100.520 107.483  96.916  0.00  0.00    +0.000 C 
ATOM     18  C   UNL     1     101.741 106.549  96.869  0.00  0.00    +0.000 C 
ENDBRANCH  15  17
BRANCH  15  19
ATOM     19  C   UNL     1      99.302 105.519  96.036  0.00  0.00    +0.000 C 
BRANCH  19  20
ATOM     20  C   UNL     1      98.289 104.809  96.975  0.00  0.00    +0.000 C 
ATOM     21  C   UNL     1      97.419 103.776  96.258  0.00  0.00    +0.000 C 
ATOM     22  C   UNL     1      99.044 104.116  98.114  0.00  0.00    +0.000 C 
ENDBRANCH  19  20
ENDBRANCH  15  19
ENDBRANCH  14  15
ENDBRANCH  13  14
ENDBRANCH   1  13
TORSDOF 7
ENDMDL
MODEL 9
REMARK VINA RESULT:    -6.657      3.292      7.692
REMARK INTER + INTRA:         -10.207
REMARK INTER:                  -9.329
REMARK INTRA:                  -0.878
REMARK UNBOUND:                -0.826
REMARK  Name = 
REMARK  12 active torsions:
REMARK  status: ('A' for Active; 'I' for Inactive)
REMARK    1  A    between atoms: C_1  and  C_2
REMARK    2  A    between atoms: C_2  and  C_3
REMARK    3  A    between atoms: C_2  and  N_4
REMARK    4  A    between atoms: N_4  and  C_5
REMARK    5  A    between atoms: N_4  and  C_9
REMARK    6  A    between atoms: C_5  and  C_6
REMARK    7  A    between atoms: C_6  and  C_7
REMARK    8  A    between atoms: C_6  and  C_8
REMARK    9  A    between atoms: C_9  and  C_10
REMARK   10  A    between atoms: C_10  and  C_11
REMARK   11  A    between atoms: C_16  and  O_17
REMARK   12  A    between atoms: O_17  and  C_18
REMARK                            x       y       z     vdW  Elec       q    Type
REMARK                         _______ _______ _______ _____ _____    ______ ____
ROOT
ATOM      1  C   UNL     1      96.515 108.548  94.821  0.00  0.00    +0.000 A 
ATOM      2  C   UNL     1      95.303 109.206  94.731  0.00  0.00    +0.000 A 
ATOM      3  N   UNL     1      94.701 108.856  93.556  0.00  0.00    +0.000 N 
ATOM      4  C   UNL     1      95.535 108.052  92.821  0.00  0.00    +0.000 A 
ATOM      5  C   UNL     1      95.354 107.492  91.550  0.00  0.00    +0.000 A 
ATOM      6  C   UNL     1      96.386 106.714  91.016  0.00  0.00    +0.000 A 
ATOM      7  C   UNL     1      97.559 106.510  91.744  0.00  0.00    +0.000 A 
ATOM      8  C   UNL     1      97.717 107.064  93.024  0.00  0.00    +0.000 A 
ATOM      9  C   UNL     1      96.688 107.850  93.580  0.00  0.00    +0.000 A 
ATOM     10  H   UNL     1      93.785 109.159  93.258  0.00  0.00    +0.000 HD
ENDROOT
BRANCH   6  11
ATOM     11  O   UNL     1      96.117 106.212  89.769  0.00  0.00    +0.000 OA
ATOM     12  C   UNL     1      97.068 105.308  89.224  0.00  0.00    +0.000 C 
ENDBRANCH   6  11
BRANCH   1  13
ATOM     13  C   UNL     1      97.489 108.598  95.965  0.00  0.00    +0.000 C 
BRANCH  13  14
ATOM     14  C   UNL     1      97.176 109.659  97.049  0.00  0.00    +0.000 C 
BRANCH  14  15
ATOM     15  N   UNL     1      97.508 109.325  98.456  0.00  0.00    +0.000 NA
BRANCH  15  17
ATOM     16  C   UNL     1      96.513 111.134  99.964  0.00  0.00    +0.000 C 
ATOM     17  C   UNL     1      96.421 109.705  99.402  0.00  0.00    +0.000 C 
ATOM     18  C   UNL     1      95.014 109.494  98.821  0.00  0.00    +0.000 C 
ENDBRANCH  15  17
BRANCH  15  19
ATOM     19  C   UNL     1      97.936 107.916  98.614  0.00  0.00    +0.000 C 
BRANCH  19  20
ATOM     20  C   UNL     1      99.424 107.644  98.961  0.00  0.00    +0.000 C 
ATOM     21  C   UNL     1     100.152 106.815  97.901  0.00  0.00    +0.000 C 
ATOM     22  C   UNL     1     100.161 108.975  99.141  0.00  0.00    +0.000 C 
ENDBRANCH  19  20
ENDBRANCH  15  19
ENDBRANCH  14  15
ENDBRANCH  13  14
ENDBRANCH   1  13
TORSDOF 7
ENDMDL
