MODEL 1
REMARK VINA RESULT:    -6.355      0.000      0.000
REMARK INTER + INTRA:          -7.635
REMARK INTER:                  -7.469
REMARK INTRA:                  -0.166
REMARK UNBOUND:                -0.166
REMARK  Name = 
REMARK  5 active torsions:
REMARK  status: ('A' for Active; 'I' for Inactive)
REMARK    1  A    between atoms: C_1  and  N_2
REMARK    2  A    between atoms: N_2  and  C_3
REMARK    3  A    between atoms: N_2  and  C_4
REMARK    4  A    between atoms: C_4  and  C_5
REMARK    5  A    between atoms: C_5  and  C_6
REMARK                            x       y       z     vdW  Elec       q    Type
REMARK                         _______ _______ _______ _____ _____    ______ ____
ROOT
ATOM      1  C   UNL     1      96.521 107.721  91.771  0.00  0.00    +0.000 A 
ATOM      2  C   UNL     1      95.180 107.390  91.823  0.00  0.00    +0.000 A 
ATOM      3  N   UNL     1      94.921 106.477  90.838  0.00  0.00    +0.000 N 
ATOM      4  C   UNL     1      96.071 106.197  90.136  0.00  0.00    +0.000 A 
ATOM      5  C   UNL     1      96.280 105.315  89.067  0.00  0.00    +0.000 A 
ATOM      6  C   UNL     1      97.572 105.237  88.541  0.00  0.00    +0.000 A 
ATOM      7  C   UNL     1      98.594 106.018  89.065  0.00  0.00    +0.000 A 
ATOM      8  F   UNL     1      99.823 105.925  88.534  0.00  0.00    +0.000 F 
ATOM      9  C   UNL     1      98.380 106.892  90.130  0.00  0.00    +0.000 A 
ATOM     10  C   UNL     1      97.088 106.979  90.687  0.00  0.00    +0.000 A 
ATOM     11  H   UNL     1      94.021 106.057  90.655  0.00  0.00    +0.000 HD
ENDROOT
BRANCH   1  12
ATOM     12  C   UNL     1      97.238 108.659  92.694  0.00  0.00    +0.000 C 
BRANCH  12  13
ATOM     13  C   UNL     1      96.664 108.632  94.121  0.00  0.00    +0.000 C 
BRANCH  13  15
ATOM     14  C   UNL     1      95.013 110.166  94.964  0.00  0.00    +0.000 C 
ATOM     15  N   UNL     1      96.444 109.968  94.714  0.00  0.00    +0.000 NA
ATOM     16  C   UNL     1      97.190 110.152  95.960  0.00  0.00    +0.000 C 
ENDBRANCH  13  15
ENDBRANCH  12  13
ENDBRANCH   1  12
TORSDOF 3
ENDMDL
MODEL 2
REMARK VINA RESULT:    -6.228      1.605      2.114
REMARK INTER + INTRA:          -7.486
REMARK INTER:                  -7.190
REMARK INTRA:                  -0.296
REMARK UNBOUND:                -0.166
REMARK  Name = 
REMARK  5 active torsions:
REMARK  status: ('A' for Active; 'I' for Inactive)
REMARK    1  A    between atoms: C_1  and  N_2
REMARK    2  A    between atoms: N_2  and  C_3
REMARK    3  A    between atoms: N_2  and  C_4
REMARK    4  A    between atoms: C_4  and  C_5
REMARK    5  A    between atoms: C_5  and  C_6
REMARK                            x       y       z     vdW  Elec       q    Type
REMARK                         _______ _______ _______ _____ _____    ______ ____
ROOT
ATOM      1  C   UNL     1      96.420 107.633  92.121  0.00  0.00    +0.000 A 
ATOM      2  C   UNL     1      95.052 107.450  92.201  0.00  0.00    +0.000 A 
ATOM      3  N   UNL     1      94.667 106.621  91.184  0.00  0.00    +0.000 N 
ATOM      4  C   UNL     1      95.759 106.250  90.433  0.00  0.00    +0.000 A 
ATOM      5  C   UNL     1      95.839 105.403  89.319  0.00  0.00    +0.000 A 
ATOM      6  C   UNL     1      97.100 105.209  88.749  0.00  0.00    +0.000 A 
ATOM      7  C   UNL     1      98.217 105.845  89.275  0.00  0.00    +0.000 A 
ATOM      8  F   UNL     1      99.413 105.644  88.701  0.00  0.00    +0.000 F 
ATOM      9  C   UNL     1      98.130 106.685  90.385  0.00  0.00    +0.000 A 
ATOM     10  C   UNL     1      96.872 106.886  90.986  0.00  0.00    +0.000 A 
ATOM     11  H   UNL     1      93.721 106.312  91.011  0.00  0.00    +0.000 HD
ENDROOT
BRANCH   1  12
ATOM     12  C   UNL     1      97.263 108.439  93.062  0.00  0.00    +0.000 C 
BRANCH  12  13
ATOM     13  C   UNL     1      97.220 107.895  94.500  0.00  0.00    +0.000 C 
BRANCH  13  15
ATOM     14  C   UNL     1      98.968 106.477  95.351  0.00  0.00    +0.000 C 
ATOM     15  N   UNL     1      97.688 106.499  94.636  0.00  0.00    +0.000 NA
ATOM     16  C   UNL     1      96.720 105.654  95.338  0.00  0.00    +0.000 C 
ENDBRANCH  13  15
ENDBRANCH  12  13
ENDBRANCH   1  12
TORSDOF 3
ENDMDL
MODEL 3
REMARK VINA RESULT:    -6.004      7.078      8.514
REMARK INTER + INTRA:          -7.223
REMARK INTER:                  -7.001
REMARK INTRA:                  -0.222
REMARK UNBOUND:                -0.166
REMARK  Name = 
REMARK  5 active torsions:
REMARK  status: ('A' for Active; 'I' for Inactive)
REMARK    1  A    between atoms: C_1  and  N_2
REMARK    2  A    between atoms: N_2  and  C_3
REMARK    3  A    between atoms: N_2  and  C_4
REMARK    4  A    between atoms: C_4  and  C_5
REMARK    5  A    between atoms: C_5  and  C_6
REMARK                            x       y       z     vdW  Elec       q    Type
REMARK                         _______ _______ _______ _____ _____    ______ ____
ROOT
ATOM      1  C   UNL     1      94.875 112.435  95.692  0.00  0.00    +0.000 A 
ATOM      2  C   UNL     1      94.166 111.665  94.790  0.00  0.00    +0.000 A 
ATOM      3  N   UNL     1      93.841 110.482  95.394  0.00  0.00    +0.000 N 
ATOM      4  C   UNL     1      94.322 110.457  96.682  0.00  0.00    +0.000 A 
ATOM      5  C   UNL     1      94.209 109.467  97.667  0.00  0.00    +0.000 A 
ATOM      6  C   UNL     1      94.809 109.717  98.904  0.00  0.00    +0.000 A 
ATOM      7  C   UNL     1      95.495 110.904  99.126  0.00  0.00    +0.000 A 
ATOM      8  F   UNL     1      96.067 111.113 100.322  0.00  0.00    +0.000 F 
ATOM      9  C   UNL     1      95.602 111.887  98.143  0.00  0.00    +0.000 A 
ATOM     10  C   UNL     1      94.994 111.664  96.892  0.00  0.00    +0.000 A 
ATOM     11  H   UNL     1      93.314 109.734  94.965  0.00  0.00    +0.000 HD
ENDROOT
BRANCH   1  12
ATOM     12  C   UNL     1      95.394 113.822  95.458  0.00  0.00    +0.000 C 
BRANCH  12  13
ATOM     13  C   UNL     1      94.399 114.904  95.911  0.00  0.00    +0.000 C 
BRANCH  13  15
ATOM     14  C   UNL     1      92.127 115.696  95.853  0.00  0.00    +0.000 C 
ATOM     15  N   UNL     1      93.158 114.964  95.110  0.00  0.00    +0.000 NA
ATOM     16  C   UNL     1      93.367 115.599  93.808  0.00  0.00    +0.000 C 
ENDBRANCH  13  15
ENDBRANCH  12  13
ENDBRANCH   1  12
TORSDOF 3
ENDMDL
MODEL 4
REMARK VINA RESULT:    -6.004      1.933      2.416
REMARK INTER + INTRA:          -7.223
REMARK INTER:                  -7.077
REMARK INTRA:                  -0.146
REMARK UNBOUND:                -0.166
REMARK  Name = 
REMARK  5 active torsions:
REMARK  status: ('A' for Active; 'I' for Inactive)
REMARK    1  A    between atoms: C_1  and  N_2
REMARK    2  A    between atoms: N_2  and  C_3
REMARK    3  A    between atoms: N_2  and  C_4
REMARK    4  A    between atoms: C_4  and  C_5
REMARK    5  A    between atoms: C_5  and  C_6
REMARK                            x       y       z     vdW  Elec       q    Type
REMARK                         _______ _______ _______ _____ _____    ______ ____
ROOT
ATOM      1  C   UNL     1      96.998 107.846  93.717  0.00  0.00    +0.000 A 
ATOM      2  C   UNL     1      96.828 106.560  94.193  0.00  0.00    +0.000 A 
ATOM      3  N   UNL     1      97.128 105.683  93.187  0.00  0.00    +0.000 N 
ATOM      4  C   UNL     1      97.495 106.369  92.052  0.00  0.00    +0.000 A 
ATOM      5  C   UNL     1      97.901 105.887  90.801  0.00  0.00    +0.000 A 
ATOM      6  C   UNL     1      98.216 106.830  89.819  0.00  0.00    +0.000 A 
ATOM      7  C   UNL     1      98.116 108.188  90.090  0.00  0.00    +0.000 A 
ATOM      8  F   UNL     1      98.418 109.070  89.124  0.00  0.00    +0.000 F 
ATOM      9  C   UNL     1      97.713 108.662  91.338  0.00  0.00    +0.000 A 
ATOM     10  C   UNL     1      97.404 107.731  92.349  0.00  0.00    +0.000 A 
ATOM     11  H   UNL     1      97.098 104.676  93.263  0.00  0.00    +0.000 HD
ENDROOT
BRANCH   1  12
ATOM     12  C   UNL     1      96.814 109.112  94.498  0.00  0.00    +0.000 C 
BRANCH  12  13
ATOM     13  C   UNL     1      95.330 109.478  94.679  0.00  0.00    +0.000 C 
BRANCH  13  15
ATOM     14  C   UNL     1      94.206 111.552  95.155  0.00  0.00    +0.000 C 
ATOM     15  N   UNL     1      95.080 110.512  95.707  0.00  0.00    +0.000 NA
ATOM     16  C   UNL     1      94.476 109.956  96.918  0.00  0.00    +0.000 C 
ENDBRANCH  13  15
ENDBRANCH  12  13
ENDBRANCH   1  12
TORSDOF 3
ENDMDL
MODEL 5
REMARK VINA RESULT:    -5.734      3.473      4.241
REMARK INTER + INTRA:          -6.906
REMARK INTER:                  -6.730
REMARK INTRA:                  -0.176
REMARK UNBOUND:                -0.166
REMARK  Name = 
REMARK  5 active torsions:
REMARK  status: ('A' for Active; 'I' for Inactive)
REMARK    1  A    between atoms: C_1  and  N_2
REMARK    2  A    between atoms: N_2  and  C_3
REMARK    3  A    between atoms: N_2  and  C_4
REMARK    4  A    between atoms: C_4  and  C_5
REMARK    5  A    between atoms: C_5  and  C_6
REMARK                            x       y       z     vdW  Elec       q    Type
REMARK                         _______ _______ _______ _____ _____    ______ ____
ROOT
ATOM      1  C   UNL     1      97.388 106.728  93.903  0.00  0.00    +0.000 A 
ATOM      2  C   UNL     1      96.578 107.763  94.329  0.00  0.00    +0.000 A 
ATOM      3  N   UNL     1      95.826 108.188  93.269  0.00  0.00    +0.000 N 
ATOM      4  C   UNL     1      96.125 107.450  92.147  0.00  0.00    +0.000 A 
ATOM      5  C   UNL     1      95.590 107.521  90.854  0.00  0.00    +0.000 A 
ATOM      6  C   UNL     1      96.095 106.634  89.900  0.00  0.00    +0.000 A 
ATOM      7  C   UNL     1      97.093 105.730  90.237  0.00  0.00    +0.000 A 
ATOM      8  F   UNL     1      97.562 104.895  89.297  0.00  0.00    +0.000 F 
ATOM      9  C   UNL     1      97.619 105.662  91.526  0.00  0.00    +0.000 A 
ATOM     10  C   UNL     1      97.117 106.537  92.511  0.00  0.00    +0.000 A 
ATOM     11  H   UNL     1      95.141 108.930  93.301  0.00  0.00    +0.000 HD
ENDROOT
BRANCH   1  12
ATOM     12  C   UNL     1      98.345 105.944  94.750  0.00  0.00    +0.000 C 
BRANCH  12  13
ATOM     13  C   UNL     1      97.741 104.617  95.241  0.00  0.00    +0.000 C 
BRANCH  13  15
ATOM     14  C   UNL     1      98.523 103.132  96.965  0.00  0.00    +0.000 C 
ATOM     15  N   UNL     1      98.742 103.585  95.588  0.00  0.00    +0.000 NA
ATOM     16  C   UNL     1      98.694 102.438  94.681  0.00  0.00    +0.000 C 
ENDBRANCH  13  15
ENDBRANCH  12  13
ENDBRANCH   1  12
TORSDOF 3
ENDMDL
MODEL 6
REMARK VINA RESULT:    -5.720      2.185      2.741
REMARK INTER + INTRA:          -6.889
REMARK INTER:                  -6.675
REMARK INTRA:                  -0.214
REMARK UNBOUND:                -0.166
REMARK  Name = 
REMARK  5 active torsions:
REMARK  status: ('A' for Active; 'I' for Inactive)
REMARK    1  A    between atoms: C_1  and  N_2
REMARK    2  A    between atoms: N_2  and  C_3
REMARK    3  A    between atoms: N_2  and  C_4
REMARK    4  A    between atoms: C_4  and  C_5
REMARK    5  A    between atoms: C_5  and  C_6
REMARK                            x       y       z     vdW  Elec       q    Type
REMARK                         _______ _______ _______ _____ _____    ______ ____
ROOT
ATOM      1  C   UNL     1      96.173 107.597  92.602  0.00  0.00    +0.000 A 
ATOM      2  C   UNL     1      97.468 107.305  92.985  0.00  0.00    +0.000 A 
ATOM      3  N   UNL     1      97.998 106.425  92.082  0.00  0.00    +0.000 N 
ATOM      4  C   UNL     1      97.073 106.131  91.106  0.00  0.00    +0.000 A 
ATOM      5  C   UNL     1      97.185 105.302  89.981  0.00  0.00    +0.000 A 
ATOM      6  C   UNL     1      96.065 105.188  89.153  0.00  0.00    +0.000 A 
ATOM      7  C   UNL     1      94.893 105.870  89.455  0.00  0.00    +0.000 A 
ATOM      8  F   UNL     1      93.833 105.735  88.644  0.00  0.00    +0.000 F 
ATOM      9  C   UNL     1      94.790 106.694  90.575  0.00  0.00    +0.000 A 
ATOM     10  C   UNL     1      95.910 106.837  91.418  0.00  0.00    +0.000 A 
ATOM     11  H   UNL     1      98.936 106.051  92.114  0.00  0.00    +0.000 HD
ENDROOT
BRANCH   1  12
ATOM     12  C   UNL     1      95.239 108.547  93.288  0.00  0.00    +0.000 C 
BRANCH  12  13
ATOM     13  C   UNL     1      95.924 109.323  94.427  0.00  0.00    +0.000 C 
BRANCH  13  15
ATOM     14  C   UNL     1      96.829 108.527  96.509  0.00  0.00    +0.000 C 
ATOM     15  N   UNL     1      95.593 108.833  95.782  0.00  0.00    +0.000 NA
ATOM     16  C   UNL     1      94.802 109.800  96.545  0.00  0.00    +0.000 C 
ENDBRANCH  13  15
ENDBRANCH  12  13
ENDBRANCH   1  12
TORSDOF 3
ENDMDL
MODEL 7
REMARK VINA RESULT:    -5.536      2.826      5.780
REMARK INTER + INTRA:          -6.673
REMARK INTER:                  -6.446
REMARK INTRA:                  -0.227
REMARK UNBOUND:                -0.166
REMARK  Name = 
REMARK  5 active torsions:
REMARK  status: ('A' for Active; 'I' for Inactive)
REMARK    1  A    between atoms: C_1  and  N_2
REMARK    2  A    between atoms: N_2  and  C_3
REMARK    3  A    between atoms: N_2  and  C_4
REMARK    4  A    between atoms: C_4  and  C_5
REMARK    5  A    between atoms: C_5  and  C_6
REMARK                            x       y       z     vdW  Elec       q    Type
REMARK                         _______ _______ _______ _____ _____    ______ ____
ROOT
ATOM      1  C   UNL     1      96.800 107.838  93.032  0.00  0.00    +0.000 A 
ATOM      2  C   UNL     1      95.616 108.478  93.345  0.00  0.00    +0.000 A 
ATOM      3  N   UNL     1      95.403 108.359  94.690  0.00  0.00    +0.000 N 
ATOM      4  C   UNL     1      96.429 107.652  95.274  0.00  0.00    +0.000 A 
ATOM      5  C   UNL     1      96.637 107.311  96.618  0.00  0.00    +0.000 A 
ATOM      6  C   UNL     1      97.783 106.574  96.924  0.00  0.00    +0.000 A 
ATOM      7  C   UNL     1      98.666 106.194  95.921  0.00  0.00    +0.000 A 
ATOM      8  F   UNL     1      99.754 105.481  96.245  0.00  0.00    +0.000 F 
ATOM      9  C   UNL     1      98.454 106.539  94.586  0.00  0.00    +0.000 A 
ATOM     10  C   UNL     1      97.312 107.295  94.253  0.00  0.00    +0.000 A 
ATOM     11  H   UNL     1      94.614 108.743  95.192  0.00  0.00    +0.000 HD
ENDROOT
BRANCH   1  12
ATOM     12  C   UNL     1      97.432 107.757  91.675  0.00  0.00    +0.000 C 
BRANCH  12  13
ATOM     13  C   UNL     1      97.253 106.373  91.028  0.00  0.00    +0.000 C 
BRANCH  13  15
ATOM     14  C   UNL     1      97.034 105.252  88.910  0.00  0.00    +0.000 C 
ATOM     15  N   UNL     1      96.591 106.401  89.706  0.00  0.00    +0.000 NA
ATOM     16  C   UNL     1      95.132 106.389  89.815  0.00  0.00    +0.000 C 
ENDBRANCH  13  15
ENDBRANCH  12  13
ENDBRANCH   1  12
TORSDOF 3
ENDMDL
MODEL 8
REMARK VINA RESULT:    -5.450      7.216      9.143
REMARK INTER + INTRA:          -6.571
REMARK INTER:                  -6.276
REMARK INTRA:                  -0.295
REMARK UNBOUND:                -0.166
REMARK  Name = 
REMARK  5 active torsions:
REMARK  status: ('A' for Active; 'I' for Inactive)
REMARK    1  A    between atoms: C_1  and  N_2
REMARK    2  A    between atoms: N_2  and  C_3
REMARK    3  A    between atoms: N_2  and  C_4
REMARK    4  A    between atoms: C_4  and  C_5
REMARK    5  A    between atoms: C_5  and  C_6
REMARK                            x       y       z     vdW  Elec       q    Type
REMARK                         _______ _______ _______ _____ _____    ______ ____
ROOT
ATOM      1  C   UNL     1      99.776 103.376  98.569  0.00  0.00    +0.000 A 
ATOM      2  C   UNL     1      99.559 103.261  99.929  0.00  0.00    +0.000 A 
ATOM      3  N   UNL     1     100.377 104.148 100.574  0.00  0.00    +0.000 N 
ATOM      4  C   UNL     1     101.132 104.848  99.662  0.00  0.00    +0.000 A 
ATOM      5  C   UNL     1     102.078 105.862  99.866  0.00  0.00    +0.000 A 
ATOM      6  C   UNL     1     102.700 106.398  98.735  0.00  0.00    +0.000 A 
ATOM      7  C   UNL     1     102.386 105.925  97.468  0.00  0.00    +0.000 A 
ATOM      8  F   UNL     1     103.006 106.455  96.402  0.00  0.00    +0.000 F 
ATOM      9  C   UNL     1     101.442 104.918  97.272  0.00  0.00    +0.000 A 
ATOM     10  C   UNL     1     100.790 104.371  98.395  0.00  0.00    +0.000 A 
ATOM     11  H   UNL     1     100.417 104.282 101.575  0.00  0.00    +0.000 HD
ENDROOT
BRANCH   1  12
ATOM     12  C   UNL     1      99.064 102.617  97.491  0.00  0.00    +0.000 C 
BRANCH  12  13
ATOM     13  C   UNL     1      97.839 103.375  96.952  0.00  0.00    +0.000 C 
BRANCH  13  15
ATOM     14  C   UNL     1      98.254 104.859  95.104  0.00  0.00    +0.000 C 
ATOM     15  N   UNL     1      97.808 103.514  95.480  0.00  0.00    +0.000 NA
ATOM     16  C   UNL     1      98.641 102.515  94.810  0.00  0.00    +0.000 C 
ENDBRANCH  13  15
ENDBRANCH  12  13
ENDBRANCH   1  12
TORSDOF 3
ENDMDL
MODEL 9
REMARK VINA RESULT:    -5.449      2.548      3.077
REMARK INTER + INTRA:          -6.571
REMARK INTER:                  -6.403
REMARK INTRA:                  -0.168
REMARK UNBOUND:                -0.166
REMARK  Name = 
REMARK  5 active torsions:
REMARK  status: ('A' for Active; 'I' for Inactive)
REMARK    1  A    between atoms: C_1  and  N_2
REMARK    2  A    between atoms: N_2  and  C_3
REMARK    3  A    between atoms: N_2  and  C_4
REMARK    4  A    between atoms: C_4  and  C_5
REMARK    5  A    between atoms: C_5  and  C_6
REMARK                            x       y       z     vdW  Elec       q    Type
REMARK                         _______ _______ _______ _____ _____    ______ ____
ROOT
ATOM      1  C   UNL     1      97.273 106.915  93.721  0.00  0.00    +0.000 A 
ATOM      2  C   UNL     1      96.291 107.813  94.095  0.00  0.00    +0.000 A 
ATOM      3  N   UNL     1      95.465 108.021  93.024  0.00  0.00    +0.000 N 
ATOM      4  C   UNL     1      95.885 107.274  91.948  0.00  0.00    +0.000 A 
ATOM      5  C   UNL     1      95.335 107.158  90.664  0.00  0.00    +0.000 A 
ATOM      6  C   UNL     1      95.986 106.315  89.760  0.00  0.00    +0.000 A 
ATOM      7  C   UNL     1      97.135 105.632  90.135  0.00  0.00    +0.000 A 
ATOM      8  F   UNL     1      97.741 104.834  89.242  0.00  0.00    +0.000 F 
ATOM      9  C   UNL     1      97.675 105.750  91.415  0.00  0.00    +0.000 A 
ATOM     10  C   UNL     1      97.030 106.584  92.350  0.00  0.00    +0.000 A 
ATOM     11  H   UNL     1      94.656 108.626  93.021  0.00  0.00    +0.000 HD
ENDROOT
BRANCH   1  12
ATOM     12  C   UNL     1      98.363 106.379  94.598  0.00  0.00    +0.000 C 
BRANCH  12  13
ATOM     13  C   UNL     1      98.037 106.523  96.094  0.00  0.00    +0.000 C 
BRANCH  13  15
ATOM     14  C   UNL     1      98.696 107.294  98.276  0.00  0.00    +0.000 C 
ATOM     15  N   UNL     1      98.969 107.396  96.839  0.00  0.00    +0.000 NA
ATOM     16  C   UNL     1     100.370 107.060  96.582  0.00  0.00    +0.000 C 
ENDBRANCH  13  15
ENDBRANCH  12  13
ENDBRANCH   1  12
TORSDOF 3
ENDMDL
