MODEL 1
REMARK VINA RESULT:    -6.894      0.000      0.000
REMARK INTER + INTRA:          -8.088
REMARK INTER:                  -7.901
REMARK INTRA:                  -0.187
REMARK UNBOUND:                -0.187
REMARK  Name = 
REMARK  4 active torsions:
REMARK  status: ('A' for Active; 'I' for Inactive)
REMARK    1  A    between atoms: C_1  and  C_2
REMARK    2  A    between atoms: C_1  and  N_12
REMARK    3  A    between atoms: C_1  and  C_13
REMARK    4  A    between atoms: C_2  and  C_3
REMARK                            x       y       z     vdW  Elec       q    Type
REMARK                         _______ _______ _______ _____ _____    ______ ____
ROOT
ATOM      1  C   UNL     1      96.005 105.569  89.749  0.00  0.00    +0.000 A 
ATOM      2  C   UNL     1      95.302 106.599  90.346  0.00  0.00    +0.000 A 
ATOM      3  N   UNL     1      96.092 107.716  90.352  0.00  0.00    +0.000 N 
ATOM      4  C   UNL     1      97.312 107.439  89.784  0.00  0.00    +0.000 A 
ATOM      5  C   UNL     1      98.422 108.269  89.586  0.00  0.00    +0.000 A 
ATOM      6  C   UNL     1      99.551 107.711  88.978  0.00  0.00    +0.000 A 
ATOM      7  C   UNL     1      99.563 106.375  88.583  0.00  0.00    +0.000 A 
ATOM      8  C   UNL     1      98.442 105.560  88.784  0.00  0.00    +0.000 A 
ATOM      9  C   UNL     1      97.291 106.098  89.396  0.00  0.00    +0.000 A 
ATOM     10  H   UNL     1      95.826 108.617  90.723  0.00  0.00    +0.000 HD
ENDROOT
BRANCH   1  11
ATOM     11  C   UNL     1      95.511 104.170  89.524  0.00  0.00    +0.000 C 
BRANCH  11  12
ATOM     12  C   UNL     1      94.638 104.014  88.259  0.00  0.00    +0.000 C 
ATOM     13  C   UNL     1      93.888 102.682  88.289  0.00  0.00    +0.000 C 
BRANCH  12  14
ATOM     14  N   UNL     1      95.421 104.078  87.017  0.00  0.00    +0.000 NA
ATOM     15  H   UNL     1      96.159 104.774  87.115  0.00  0.00    +0.000 HD
ATOM     16  H   UNL     1      94.816 104.442  86.276  0.00  0.00    +0.000 HD
ENDBRANCH  12  14
ENDBRANCH  11  12
ENDBRANCH   1  11
TORSDOF 3
ENDMDL
MODEL 2
REMARK VINA RESULT:    -6.483      1.982      4.059
REMARK INTER + INTRA:          -7.618
REMARK INTER:                  -7.505
REMARK INTRA:                  -0.113
REMARK UNBOUND:                -0.187
REMARK  Name = 
REMARK  4 active torsions:
REMARK  status: ('A' for Active; 'I' for Inactive)
REMARK    1  A    between atoms: C_1  and  C_2
REMARK    2  A    between atoms: C_1  and  N_12
REMARK    3  A    between atoms: C_1  and  C_13
REMARK    4  A    between atoms: C_2  and  C_3
REMARK                            x       y       z     vdW  Elec       q    Type
REMARK                         _______ _______ _______ _____ _____    ______ ____
ROOT
ATOM      1  C   UNL     1      95.879 107.257  90.567  0.00  0.00    +0.000 A 
ATOM      2  C   UNL     1      95.025 106.268  90.119  0.00  0.00    +0.000 A 
ATOM      3  N   UNL     1      95.716 105.454  89.264  0.00  0.00    +0.000 N 
ATOM      4  C   UNL     1      97.009 105.897  89.126  0.00  0.00    +0.000 A 
ATOM      5  C   UNL     1      98.060 105.383  88.356  0.00  0.00    +0.000 A 
ATOM      6  C   UNL     1      99.287 106.051  88.404  0.00  0.00    +0.000 A 
ATOM      7  C   UNL     1      99.453 107.187  89.193  0.00  0.00    +0.000 A 
ATOM      8  C   UNL     1      98.392 107.685  89.960  0.00  0.00    +0.000 A 
ATOM      9  C   UNL     1      97.144 107.031  89.930  0.00  0.00    +0.000 A 
ATOM     10  H   UNL     1      95.337 104.643  88.795  0.00  0.00    +0.000 HD
ENDROOT
BRANCH   1  11
ATOM     11  C   UNL     1      95.537 108.358  91.529  0.00  0.00    +0.000 C 
BRANCH  11  12
ATOM     12  C   UNL     1      95.107 107.853  92.925  0.00  0.00    +0.000 C 
ATOM     13  C   UNL     1      95.194 108.983  93.951  0.00  0.00    +0.000 C 
BRANCH  12  14
ATOM     14  N   UNL     1      95.927 106.729  93.400  0.00  0.00    +0.000 NA
ATOM     15  H   UNL     1      95.814 106.626  94.407  0.00  0.00    +0.000 HD
ATOM     16  H   UNL     1      96.912 106.975  93.271  0.00  0.00    +0.000 HD
ENDBRANCH  12  14
ENDBRANCH  11  12
ENDBRANCH   1  11
TORSDOF 3
ENDMDL
MODEL 3
REMARK VINA RESULT:    -5.923      3.406      5.348
REMARK INTER + INTRA:          -6.976
REMARK INTER:                  -6.983
REMARK INTRA:                   0.007
REMARK UNBOUND:                -0.187
REMARK  Name = 
REMARK  4 active torsions:
REMARK  status: ('A' for Active; 'I' for Inactive)
REMARK    1  A    between atoms: C_1  and  C_2
REMARK    2  A    between atoms: C_1  and  N_12
REMARK    3  A    between atoms: C_1  and  C_13
REMARK    4  A    between atoms: C_2  and  C_3
REMARK                            x       y       z     vdW  Elec       q    Type
REMARK                         _______ _______ _______ _____ _____    ______ ____
ROOT
ATOM      1  C   UNL     1      97.151 107.846  93.307  0.00  0.00    +0.000 A 
ATOM      2  C   UNL     1      96.940 106.603  93.872  0.00  0.00    +0.000 A 
ATOM      3  N   UNL     1      97.213 105.648  92.931  0.00  0.00    +0.000 N 
ATOM      4  C   UNL     1      97.585 106.239  91.748  0.00  0.00    +0.000 A 
ATOM      5  C   UNL     1      97.943 105.658  90.525  0.00  0.00    +0.000 A 
ATOM      6  C   UNL     1      98.276 106.515  89.471  0.00  0.00    +0.000 A 
ATOM      7  C   UNL     1      98.251 107.898  89.639  0.00  0.00    +0.000 A 
ATOM      8  C   UNL     1      97.894 108.462  90.870  0.00  0.00    +0.000 A 
ATOM      9  C   UNL     1      97.554 107.620  91.949  0.00  0.00    +0.000 A 
ATOM     10  H   UNL     1      97.148 104.650  93.076  0.00  0.00    +0.000 HD
ENDROOT
BRANCH   1  11
ATOM     11  C   UNL     1      96.980 109.173  93.989  0.00  0.00    +0.000 C 
BRANCH  11  12
ATOM     12  C   UNL     1      95.509 109.530  94.297  0.00  0.00    +0.000 C 
ATOM     13  C   UNL     1      95.213 109.335  95.784  0.00  0.00    +0.000 C 
BRANCH  12  14
ATOM     14  N   UNL     1      94.555 108.725  93.523  0.00  0.00    +0.000 NA
ATOM     15  H   UNL     1      94.953 107.804  93.343  0.00  0.00    +0.000 HD
ATOM     16  H   UNL     1      94.453 109.151  92.598  0.00  0.00    +0.000 HD
ENDBRANCH  12  14
ENDBRANCH  11  12
ENDBRANCH   1  11
TORSDOF 3
ENDMDL
MODEL 4
REMARK VINA RESULT:    -5.841      2.209      4.064
REMARK INTER + INTRA:          -6.882
REMARK INTER:                  -6.806
REMARK INTRA:                  -0.076
REMARK UNBOUND:                -0.187
REMARK  Name = 
REMARK  4 active torsions:
REMARK  status: ('A' for Active; 'I' for Inactive)
REMARK    1  A    between atoms: C_1  and  C_2
REMARK    2  A    between atoms: C_1  and  N_12
REMARK    3  A    between atoms: C_1  and  C_13
REMARK    4  A    between atoms: C_2  and  C_3
REMARK                            x       y       z     vdW  Elec       q    Type
REMARK                         _______ _______ _______ _____ _____    ______ ____
ROOT
ATOM      1  C   UNL     1      97.143 105.940  90.045  0.00  0.00    +0.000 A 
ATOM      2  C   UNL     1      95.951 106.069  89.358  0.00  0.00    +0.000 A 
ATOM      3  N   UNL     1      95.089 106.806  90.122  0.00  0.00    +0.000 N 
ATOM      4  C   UNL     1      95.685 107.156  91.310  0.00  0.00    +0.000 A 
ATOM      5  C   UNL     1      95.180 107.895  92.387  0.00  0.00    +0.000 A 
ATOM      6  C   UNL     1      96.020 108.095  93.487  0.00  0.00    +0.000 A 
ATOM      7  C   UNL     1      97.312 107.576  93.505  0.00  0.00    +0.000 A 
ATOM      8  C   UNL     1      97.802 106.842  92.417  0.00  0.00    +0.000 A 
ATOM      9  C   UNL     1      96.976 106.625  91.295  0.00  0.00    +0.000 A 
ATOM     10  H   UNL     1      94.146 107.060  89.860  0.00  0.00    +0.000 HD
ENDROOT
BRANCH   1  11
ATOM     11  C   UNL     1      98.370 105.217  89.570  0.00  0.00    +0.000 C 
BRANCH  11  12
ATOM     12  C   UNL     1      99.260 106.055  88.626  0.00  0.00    +0.000 C 
ATOM     13  C   UNL     1      99.268 107.520  89.061  0.00  0.00    +0.000 C 
BRANCH  12  14
ATOM     14  N   UNL     1      98.823 105.988  87.224  0.00  0.00    +0.000 NA
ATOM     15  H   UNL     1      99.013 105.059  86.852  0.00  0.00    +0.000 HD
ATOM     16  H   UNL     1      99.414 106.616  86.674  0.00  0.00    +0.000 HD
ENDBRANCH  12  14
ENDBRANCH  11  12
ENDBRANCH   1  11
TORSDOF 3
ENDMDL
MODEL 5
REMARK VINA RESULT:    -5.813      3.160      4.155
REMARK INTER + INTRA:          -6.850
REMARK INTER:                  -6.640
REMARK INTRA:                  -0.210
REMARK UNBOUND:                -0.187
REMARK  Name = 
REMARK  4 active torsions:
REMARK  status: ('A' for Active; 'I' for Inactive)
REMARK    1  A    between atoms: C_1  and  C_2
REMARK    2  A    between atoms: C_1  and  N_12
REMARK    3  A    between atoms: C_1  and  C_13
REMARK    4  A    between atoms: C_2  and  C_3
REMARK                            x       y       z     vdW  Elec       q    Type
REMARK                         _______ _______ _______ _____ _____    ______ ____
ROOT
ATOM      1  C   UNL     1      97.392 107.454  91.293  0.00  0.00    +0.000 A 
ATOM      2  C   UNL     1      97.526 108.828  91.356  0.00  0.00    +0.000 A 
ATOM      3  N   UNL     1      98.303 109.235  90.307  0.00  0.00    +0.000 N 
ATOM      4  C   UNL     1      98.698 108.153  89.558  0.00  0.00    +0.000 A 
ATOM      5  C   UNL     1      99.498 108.096  88.410  0.00  0.00    +0.000 A 
ATOM      6  C   UNL     1      99.744 106.838  87.852  0.00  0.00    +0.000 A 
ATOM      7  C   UNL     1      99.210 105.685  88.423  0.00  0.00    +0.000 A 
ATOM      8  C   UNL     1      98.409 105.761  89.570  0.00  0.00    +0.000 A 
ATOM      9  C   UNL     1      98.145 107.017  90.152  0.00  0.00    +0.000 A 
ATOM     10  H   UNL     1      98.558 110.193  90.106  0.00  0.00    +0.000 HD
ENDROOT
BRANCH   1  11
ATOM     11  C   UNL     1      96.611 106.592  92.243  0.00  0.00    +0.000 C 
BRANCH  11  12
ATOM     12  C   UNL     1      96.916 106.874  93.732  0.00  0.00    +0.000 C 
ATOM     13  C   UNL     1      98.328 106.407  94.084  0.00  0.00    +0.000 C 
BRANCH  12  14
ATOM     14  N   UNL     1      95.967 106.213  94.640  0.00  0.00    +0.000 NA
ATOM     15  H   UNL     1      95.015 106.463  94.378  0.00  0.00    +0.000 HD
ATOM     16  H   UNL     1      96.093 106.608  95.575  0.00  0.00    +0.000 HD
ENDBRANCH  12  14
ENDBRANCH  11  12
ENDBRANCH   1  11
TORSDOF 3
ENDMDL
MODEL 6
REMARK VINA RESULT:    -5.658      2.536      4.899
REMARK INTER + INTRA:          -6.672
REMARK INTER:                  -6.581
REMARK INTRA:                  -0.091
REMARK UNBOUND:                -0.187
REMARK  Name = 
REMARK  4 active torsions:
REMARK  status: ('A' for Active; 'I' for Inactive)
REMARK    1  A    between atoms: C_1  and  C_2
REMARK    2  A    between atoms: C_1  and  N_12
REMARK    3  A    between atoms: C_1  and  C_13
REMARK    4  A    between atoms: C_2  and  C_3
REMARK                            x       y       z     vdW  Elec       q    Type
REMARK                         _______ _______ _______ _____ _____    ______ ____
ROOT
ATOM      1  C   UNL     1      96.297 107.523  91.553  0.00  0.00    +0.000 A 
ATOM      2  C   UNL     1      97.599 107.985  91.600  0.00  0.00    +0.000 A 
ATOM      3  N   UNL     1      98.311 107.375  90.604  0.00  0.00    +0.000 N 
ATOM      4  C   UNL     1      97.507 106.506  89.908  0.00  0.00    +0.000 A 
ATOM      5  C   UNL     1      97.808 105.672  88.823  0.00  0.00    +0.000 A 
ATOM      6  C   UNL     1      96.780 104.877  88.310  0.00  0.00    +0.000 A 
ATOM      7  C   UNL     1      95.501 104.917  88.861  0.00  0.00    +0.000 A 
ATOM      8  C   UNL     1      95.216 105.760  89.943  0.00  0.00    +0.000 A 
ATOM      9  C   UNL     1      96.235 106.572  90.480  0.00  0.00    +0.000 A 
ATOM     10  H   UNL     1      99.289 107.533  90.404  0.00  0.00    +0.000 HD
ENDROOT
BRANCH   1  11
ATOM     11  C   UNL     1      95.174 107.937  92.458  0.00  0.00    +0.000 C 
BRANCH  11  12
ATOM     12  C   UNL     1      95.631 108.769  93.677  0.00  0.00    +0.000 C 
ATOM     13  C   UNL     1      96.111 107.850  94.800  0.00  0.00    +0.000 C 
BRANCH  12  14
ATOM     14  N   UNL     1      94.567 109.633  94.207  0.00  0.00    +0.000 NA
ATOM     15  H   UNL     1      94.157 110.175  93.447  0.00  0.00    +0.000 HD
ATOM     16  H   UNL     1      94.996 110.329  94.821  0.00  0.00    +0.000 HD
ENDBRANCH  12  14
ENDBRANCH  11  12
ENDBRANCH   1  11
TORSDOF 3
ENDMDL
MODEL 7
REMARK VINA RESULT:    -5.607      7.966      8.816
REMARK INTER + INTRA:          -6.614
REMARK INTER:                  -6.364
REMARK INTRA:                  -0.250
REMARK UNBOUND:                -0.187
REMARK  Name = 
REMARK  4 active torsions:
REMARK  status: ('A' for Active; 'I' for Inactive)
REMARK    1  A    between atoms: C_1  and  C_2
REMARK    2  A    between atoms: C_1  and  N_12
REMARK    3  A    between atoms: C_1  and  C_13
REMARK    4  A    between atoms: C_2  and  C_3
REMARK                            x       y       z     vdW  Elec       q    Type
REMARK                         _______ _______ _______ _____ _____    ______ ____
ROOT
ATOM      1  C   UNL     1      97.610 104.241  96.529  0.00  0.00    +0.000 A 
ATOM      2  C   UNL     1      97.609 102.924  96.110  0.00  0.00    +0.000 A 
ATOM      3  N   UNL     1      98.544 102.239  96.836  0.00  0.00    +0.000 N 
ATOM      4  C   UNL     1      99.175 103.083  97.717  0.00  0.00    +0.000 A 
ATOM      5  C   UNL     1     100.193 102.822  98.643  0.00  0.00    +0.000 A 
ATOM      6  C   UNL     1     100.656 103.889  99.418  0.00  0.00    +0.000 A 
ATOM      7  C   UNL     1     100.120 105.166  99.271  0.00  0.00    +0.000 A 
ATOM      8  C   UNL     1      99.099 105.409  98.342  0.00  0.00    +0.000 A 
ATOM      9  C   UNL     1      98.614 104.350  97.548  0.00  0.00    +0.000 A 
ATOM     10  H   UNL     1      98.750 101.254  96.741  0.00  0.00    +0.000 HD
ENDROOT
BRANCH   1  11
ATOM     11  C   UNL     1      96.731 105.341  96.006  0.00  0.00    +0.000 C 
BRANCH  11  12
ATOM     12  C   UNL     1      97.119 105.829  94.593  0.00  0.00    +0.000 C 
ATOM     13  C   UNL     1      98.359 106.721  94.658  0.00  0.00    +0.000 C 
BRANCH  12  14
ATOM     14  N   UNL     1      96.040 106.580  93.935  0.00  0.00    +0.000 NA
ATOM     15  H   UNL     1      96.405 107.464  93.584  0.00  0.00    +0.000 HD
ATOM     16  H   UNL     1      95.355 106.845  94.648  0.00  0.00    +0.000 HD
ENDBRANCH  12  14
ENDBRANCH  11  12
ENDBRANCH   1  11
TORSDOF 3
ENDMDL
MODEL 8
REMARK VINA RESULT:    -5.577     10.815     12.036
REMARK INTER + INTRA:          -6.579
REMARK INTER:                  -6.468
REMARK INTRA:                  -0.111
REMARK UNBOUND:                -0.187
REMARK  Name = 
REMARK  4 active torsions:
REMARK  status: ('A' for Active; 'I' for Inactive)
REMARK    1  A    between atoms: C_1  and  C_2
REMARK    2  A    between atoms: C_1  and  N_12
REMARK    3  A    between atoms: C_1  and  C_13
REMARK    4  A    between atoms: C_2  and  C_3
REMARK                            x       y       z     vdW  Elec       q    Type
REMARK                         _______ _______ _______ _____ _____    ______ ____
ROOT
ATOM      1  C   UNL     1     100.342 104.403  98.517  0.00  0.00    +0.000 A 
ATOM      2  C   UNL     1     100.559 103.399  97.592  0.00  0.00    +0.000 A 
ATOM      3  N   UNL     1     100.302 102.196  98.190  0.00  0.00    +0.000 N 
ATOM      4  C   UNL     1      99.934 102.385  99.500  0.00  0.00    +0.000 A 
ATOM      5  C   UNL     1      99.591 101.449 100.483  0.00  0.00    +0.000 A 
ATOM      6  C   UNL     1      99.259 101.931 101.753  0.00  0.00    +0.000 A 
ATOM      7  C   UNL     1      99.271 103.298 102.024  0.00  0.00    +0.000 A 
ATOM      8  C   UNL     1      99.613 104.221 101.028  0.00  0.00    +0.000 A 
ATOM      9  C   UNL     1      99.952 103.760  99.739  0.00  0.00    +0.000 A 
ATOM     10  H   UNL     1     100.373 101.293  97.741  0.00  0.00    +0.000 HD
ENDROOT
BRANCH   1  11
ATOM     11  C   UNL     1     100.496 105.877  98.281  0.00  0.00    +0.000 C 
BRANCH  11  12
ATOM     12  C   UNL     1     101.962 106.363  98.312  0.00  0.00    +0.000 C 
ATOM     13  C   UNL     1     102.572 106.307  96.911  0.00  0.00    +0.000 C 
BRANCH  12  14
ATOM     14  N   UNL     1     102.804 105.570  99.218  0.00  0.00    +0.000 NA
ATOM     15  H   UNL     1     102.320 105.438 100.105  0.00  0.00    +0.000 HD
ATOM     16  H   UNL     1     103.632 106.125  99.452  0.00  0.00    +0.000 HD
ENDBRANCH  12  14
ENDBRANCH  11  12
ENDBRANCH   1  11
TORSDOF 3
ENDMDL
MODEL 9
REMARK VINA RESULT:    -5.524      3.510      4.999
REMARK INTER + INTRA:          -6.518
REMARK INTER:                  -6.381
REMARK INTRA:                  -0.137
REMARK UNBOUND:                -0.187
REMARK  Name = 
REMARK  4 active torsions:
REMARK  status: ('A' for Active; 'I' for Inactive)
REMARK    1  A    between atoms: C_1  and  C_2
REMARK    2  A    between atoms: C_1  and  N_12
REMARK    3  A    between atoms: C_1  and  C_13
REMARK    4  A    between atoms: C_2  and  C_3
REMARK                            x       y       z     vdW  Elec       q    Type
REMARK                         _______ _______ _______ _____ _____    ______ ____
ROOT
ATOM      1  C   UNL     1      97.103 107.084  93.321  0.00  0.00    +0.000 A 
ATOM      2  C   UNL     1      96.172 108.104  93.366  0.00  0.00    +0.000 A 
ATOM      3  N   UNL     1      95.471 108.103  92.191  0.00  0.00    +0.000 N 
ATOM      4  C   UNL     1      95.933 107.110  91.362  0.00  0.00    +0.000 A 
ATOM      5  C   UNL     1      95.521 106.749  90.073  0.00  0.00    +0.000 A 
ATOM      6  C   UNL     1      96.182 105.684  89.454  0.00  0.00    +0.000 A 
ATOM      7  C   UNL     1      97.214 105.009  90.102  0.00  0.00    +0.000 A 
ATOM      8  C   UNL     1      97.611 105.381  91.393  0.00  0.00    +0.000 A 
ATOM      9  C   UNL     1      96.960 106.452  92.040  0.00  0.00    +0.000 A 
ATOM     10  H   UNL     1      94.722 108.741  91.958  0.00  0.00    +0.000 HD
ENDROOT
BRANCH   1  11
ATOM     11  C   UNL     1      98.076 106.719  94.404  0.00  0.00    +0.000 C 
BRANCH  11  12
ATOM     12  C   UNL     1      97.549 105.640  95.376  0.00  0.00    +0.000 C 
ATOM     13  C   UNL     1      98.155 104.277  95.040  0.00  0.00    +0.000 C 
BRANCH  12  14
ATOM     14  N   UNL     1      96.085 105.517  95.350  0.00  0.00    +0.000 NA
ATOM     15  H   UNL     1      95.763 105.090  96.217  0.00  0.00    +0.000 HD
ATOM     16  H   UNL     1      95.834 104.847  94.618  0.00  0.00    +0.000 HD
ENDBRANCH  12  14
ENDBRANCH  11  12
ENDBRANCH   1  11
TORSDOF 3
ENDMDL
