MODEL 1
REMARK VINA RESULT:    -6.265      0.000      0.000
REMARK INTER + INTRA:          -7.771
REMARK INTER:                  -7.547
REMARK INTRA:                  -0.223
REMARK UNBOUND:                -0.223
REMARK  Name = 
REMARK  6 active torsions:
REMARK  status: ('A' for Active; 'I' for Inactive)
REMARK    1  A    between atoms: C_1  and  N_2
REMARK    2  A    between atoms: N_2  and  C_3
REMARK    3  A    between atoms: N_2  and  C_4
REMARK    4  A    between atoms: C_4  and  C_5
REMARK    5  A    between atoms: C_5  and  C_6
REMARK    6  A    between atoms: C_11  and  O_12
REMARK                            x       y       z     vdW  Elec       q    Type
REMARK                         _______ _______ _______ _____ _____    ______ ____
ROOT
ATOM      1  C   UNL     1      97.401 106.019  90.581  0.00  0.00    +0.000 A 
ATOM      2  C   UNL     1      96.999 107.072  91.384  0.00  0.00    +0.000 A 
ATOM      3  N   UNL     1      97.591 108.215  90.913  0.00  0.00    +0.000 N 
ATOM      4  C   UNL     1      98.374 107.931  89.817  0.00  0.00    +0.000 A 
ATOM      5  C   UNL     1      99.133 108.781  89.001  0.00  0.00    +0.000 A 
ATOM      6  C   UNL     1      99.835 108.186  87.950  0.00  0.00    +0.000 A 
ATOM      7  C   UNL     1      99.803 106.818  87.725  0.00  0.00    +0.000 A 
ATOM      8  C   UNL     1      99.039 105.987  88.548  0.00  0.00    +0.000 A 
ATOM      9  C   UNL     1      98.297 106.554  89.607  0.00  0.00    +0.000 A 
ATOM     10  H   UNL     1      97.458 109.137  91.301  0.00  0.00    +0.000 HD
ENDROOT
BRANCH   6  11
ATOM     11  O   UNL     1     100.589 108.940  87.094  0.00  0.00    +0.000 OA
ATOM     12  H   UNL     1     100.088 109.740  86.869  0.00  0.00    +0.000 HD
ENDBRANCH   6  11
BRANCH   1  13
ATOM     13  C   UNL     1      96.971 104.590  90.700  0.00  0.00    +0.000 C 
BRANCH  13  14
ATOM     14  C   UNL     1      96.024 104.185  89.556  0.00  0.00    +0.000 C 
BRANCH  14  16
ATOM     15  C   UNL     1      94.076 105.521  89.135  0.00  0.00    +0.000 C 
ATOM     16  N   UNL     1      94.584 104.345  89.850  0.00  0.00    +0.000 NA
ATOM     17  C   UNL     1      93.810 103.165  89.461  0.00  0.00    +0.000 C 
ENDBRANCH  14  16
ENDBRANCH  13  14
ENDBRANCH   1  13
TORSDOF 4
ENDMDL
MODEL 2
REMARK VINA RESULT:    -6.116      2.093      3.996
REMARK INTER + INTRA:          -7.591
REMARK INTER:                  -7.408
REMARK INTRA:                  -0.183
REMARK UNBOUND:                -0.223
REMARK  Name = 
REMARK  6 active torsions:
REMARK  status: ('A' for Active; 'I' for Inactive)
REMARK    1  A    between atoms: C_1  and  N_2
REMARK    2  A    between atoms: N_2  and  C_3
REMARK    3  A    between atoms: N_2  and  C_4
REMARK    4  A    between atoms: C_4  and  C_5
REMARK    5  A    between atoms: C_5  and  C_6
REMARK    6  A    between atoms: C_11  and  O_12
REMARK                            x       y       z     vdW  Elec       q    Type
REMARK                         _______ _______ _______ _____ _____    ______ ____
ROOT
ATOM      1  C   UNL     1      97.094 106.559  91.110  0.00  0.00    +0.000 A 
ATOM      2  C   UNL     1      97.086 105.192  90.896  0.00  0.00    +0.000 A 
ATOM      3  N   UNL     1      97.933 104.920  89.852  0.00  0.00    +0.000 N 
ATOM      4  C   UNL     1      98.495 106.084  89.378  0.00  0.00    +0.000 A 
ATOM      5  C   UNL     1      99.430 106.285  88.354  0.00  0.00    +0.000 A 
ATOM      6  C   UNL     1      99.812 107.605  88.099  0.00  0.00    +0.000 A 
ATOM      7  C   UNL     1      99.285 108.674  88.809  0.00  0.00    +0.000 A 
ATOM      8  C   UNL     1      98.355 108.451  89.827  0.00  0.00    +0.000 A 
ATOM      9  C   UNL     1      97.961 107.131  90.129  0.00  0.00    +0.000 A 
ATOM     10  H   UNL     1      98.130 103.998  89.493  0.00  0.00    +0.000 HD
ENDROOT
BRANCH   6  11
ATOM     11  O   UNL     1     100.731 107.895  87.128  0.00  0.00    +0.000 OA
ATOM     12  H   UNL     1     100.390 108.631  86.595  0.00  0.00    +0.000 HD
ENDBRANCH   6  11
BRANCH   1  13
ATOM     13  C   UNL     1      96.348 107.301  92.174  0.00  0.00    +0.000 C 
BRANCH  13  14
ATOM     14  C   UNL     1      97.265 107.683  93.349  0.00  0.00    +0.000 C 
BRANCH  14  16
ATOM     15  C   UNL     1      95.345 108.969  93.997  0.00  0.00    +0.000 C 
ATOM     16  N   UNL     1      96.796 108.827  94.160  0.00  0.00    +0.000 NA
ATOM     17  C   UNL     1      97.113 108.660  95.580  0.00  0.00    +0.000 C 
ENDBRANCH  14  16
ENDBRANCH  13  14
ENDBRANCH   1  13
TORSDOF 4
ENDMDL
MODEL 3
REMARK VINA RESULT:    -5.912      2.902      4.649
REMARK INTER + INTRA:          -7.345
REMARK INTER:                  -7.216
REMARK INTRA:                  -0.129
REMARK UNBOUND:                -0.223
REMARK  Name = 
REMARK  6 active torsions:
REMARK  status: ('A' for Active; 'I' for Inactive)
REMARK    1  A    between atoms: C_1  and  N_2
REMARK    2  A    between atoms: N_2  and  C_3
REMARK    3  A    between atoms: N_2  and  C_4
REMARK    4  A    between atoms: C_4  and  C_5
REMARK    5  A    between atoms: C_5  and  C_6
REMARK    6  A    between atoms: C_11  and  O_12
REMARK                            x       y       z     vdW  Elec       q    Type
REMARK                         _______ _______ _______ _____ _____    ______ ____
ROOT
ATOM      1  C   UNL     1      97.185 107.661  92.310  0.00  0.00    +0.000 A 
ATOM      2  C   UNL     1      96.830 106.372  92.666  0.00  0.00    +0.000 A 
ATOM      3  N   UNL     1      97.263 105.524  91.679  0.00  0.00    +0.000 N 
ATOM      4  C   UNL     1      97.893 106.233  90.682  0.00  0.00    +0.000 A 
ATOM      5  C   UNL     1      98.513 105.787  89.507  0.00  0.00    +0.000 A 
ATOM      6  C   UNL     1      99.072 106.763  88.678  0.00  0.00    +0.000 A 
ATOM      7  C   UNL     1      99.007 108.115  88.987  0.00  0.00    +0.000 A 
ATOM      8  C   UNL     1      98.387 108.539  90.164  0.00  0.00    +0.000 A 
ATOM      9  C   UNL     1      97.831 107.580  91.038  0.00  0.00    +0.000 A 
ATOM     10  H   UNL     1      97.151 104.521  91.689  0.00  0.00    +0.000 HD
ENDROOT
BRANCH   6  11
ATOM     11  O   UNL     1      99.709 106.419  87.519  0.00  0.00    +0.000 OA
ATOM     12  H   UNL     1     100.491 105.890  87.745  0.00  0.00    +0.000 HD
ENDBRANCH   6  11
BRANCH   1  13
ATOM     13  C   UNL     1      96.951 108.905  93.107  0.00  0.00    +0.000 C 
BRANCH  13  14
ATOM     14  C   UNL     1      95.681 108.798  93.968  0.00  0.00    +0.000 C 
BRANCH  14  16
ATOM     15  C   UNL     1      94.573 110.519  95.221  0.00  0.00    +0.000 C 
ATOM     16  N   UNL     1      95.705 109.586  95.219  0.00  0.00    +0.000 NA
ATOM     17  C   UNL     1      95.636 108.732  96.407  0.00  0.00    +0.000 C 
ENDBRANCH  14  16
ENDBRANCH  13  14
ENDBRANCH   1  13
TORSDOF 4
ENDMDL
MODEL 4
REMARK VINA RESULT:    -5.800      3.530      5.015
REMARK INTER + INTRA:          -7.210
REMARK INTER:                  -7.010
REMARK INTRA:                  -0.200
REMARK UNBOUND:                -0.223
REMARK  Name = 
REMARK  6 active torsions:
REMARK  status: ('A' for Active; 'I' for Inactive)
REMARK    1  A    between atoms: C_1  and  N_2
REMARK    2  A    between atoms: N_2  and  C_3
REMARK    3  A    between atoms: N_2  and  C_4
REMARK    4  A    between atoms: C_4  and  C_5
REMARK    5  A    between atoms: C_5  and  C_6
REMARK    6  A    between atoms: C_11  and  O_12
REMARK                            x       y       z     vdW  Elec       q    Type
REMARK                         _______ _______ _______ _____ _____    ______ ____
ROOT
ATOM      1  C   UNL     1      96.879 107.148  93.197  0.00  0.00    +0.000 A 
ATOM      2  C   UNL     1      95.929 108.150  93.122  0.00  0.00    +0.000 A 
ATOM      3  N   UNL     1      95.327 108.075  91.893  0.00  0.00    +0.000 N 
ATOM      4  C   UNL     1      95.867 107.042  91.160  0.00  0.00    +0.000 A 
ATOM      5  C   UNL     1      95.545 106.577  89.877  0.00  0.00    +0.000 A 
ATOM      6  C   UNL     1      96.284 105.494  89.394  0.00  0.00    +0.000 A 
ATOM      7  C   UNL     1      97.301 104.909  90.135  0.00  0.00    +0.000 A 
ATOM      8  C   UNL     1      97.604 105.385  91.412  0.00  0.00    +0.000 A 
ATOM      9  C   UNL     1      96.865 106.463  91.943  0.00  0.00    +0.000 A 
ATOM     10  H   UNL     1      94.583 108.678  91.575  0.00  0.00    +0.000 HD
ENDROOT
BRANCH   6  11
ATOM     11  O   UNL     1      96.029 104.965  88.160  0.00  0.00    +0.000 OA
ATOM     12  H   UNL     1      96.790 105.148  87.586  0.00  0.00    +0.000 HD
ENDBRANCH   6  11
BRANCH   1  13
ATOM     13  C   UNL     1      97.751 106.829  94.371  0.00  0.00    +0.000 C 
BRANCH  13  14
ATOM     14  C   UNL     1      97.197 105.647  95.185  0.00  0.00    +0.000 C 
BRANCH  14  16
ATOM     15  C   UNL     1      99.294 105.131  96.232  0.00  0.00    +0.000 C 
ATOM     16  N   UNL     1      98.173 104.572  95.469  0.00  0.00    +0.000 NA
ATOM     17  C   UNL     1      97.571 103.470  96.223  0.00  0.00    +0.000 C 
ENDBRANCH  14  16
ENDBRANCH  13  14
ENDBRANCH   1  13
TORSDOF 4
ENDMDL
MODEL 5
REMARK VINA RESULT:    -5.755      9.984     11.928
REMARK INTER + INTRA:          -7.156
REMARK INTER:                  -6.888
REMARK INTRA:                  -0.269
REMARK UNBOUND:                -0.223
REMARK  Name = 
REMARK  6 active torsions:
REMARK  status: ('A' for Active; 'I' for Inactive)
REMARK    1  A    between atoms: C_1  and  N_2
REMARK    2  A    between atoms: N_2  and  C_3
REMARK    3  A    between atoms: N_2  and  C_4
REMARK    4  A    between atoms: C_4  and  C_5
REMARK    5  A    between atoms: C_5  and  C_6
REMARK    6  A    between atoms: C_11  and  O_12
REMARK                            x       y       z     vdW  Elec       q    Type
REMARK                         _______ _______ _______ _____ _____    ______ ____
ROOT
ATOM      1  C   UNL     1      99.871 104.451  98.196  0.00  0.00    +0.000 A 
ATOM      2  C   UNL     1     100.267 103.403  97.384  0.00  0.00    +0.000 A 
ATOM      3  N   UNL     1     100.271 102.258  98.139  0.00  0.00    +0.000 N 
ATOM      4  C   UNL     1      99.885 102.538  99.431  0.00  0.00    +0.000 A 
ATOM      5  C   UNL     1      99.716 101.684 100.530  0.00  0.00    +0.000 A 
ATOM      6  C   UNL     1      99.312 102.274 101.731  0.00  0.00    +0.000 A 
ATOM      7  C   UNL     1      99.101 103.640 101.845  0.00  0.00    +0.000 A 
ATOM      8  C   UNL     1      99.273 104.473 100.737  0.00  0.00    +0.000 A 
ATOM      9  C   UNL     1      99.659 103.912  99.501  0.00  0.00    +0.000 A 
ATOM     10  H   UNL     1     100.505 101.339  97.795  0.00  0.00    +0.000 HD
ENDROOT
BRANCH   6  11
ATOM     11  O   UNL     1      99.108 101.517 102.851  0.00  0.00    +0.000 OA
ATOM     12  H   UNL     1      98.152 101.408 102.976  0.00  0.00    +0.000 HD
ENDBRANCH   6  11
BRANCH   1  13
ATOM     13  C   UNL     1      99.686 105.878  97.785  0.00  0.00    +0.000 C 
BRANCH  13  14
ATOM     14  C   UNL     1     100.975 106.470  97.189  0.00  0.00    +0.000 C 
BRANCH  14  16
ATOM     15  C   UNL     1     100.867 107.886  99.123  0.00  0.00    +0.000 C 
ATOM     16  N   UNL     1     101.764 107.309  98.116  0.00  0.00    +0.000 NA
ATOM     17  C   UNL     1     102.820 106.545  98.784  0.00  0.00    +0.000 C 
ENDBRANCH  14  16
ENDBRANCH  13  14
ENDBRANCH   1  13
TORSDOF 4
ENDMDL
MODEL 6
REMARK VINA RESULT:    -5.608      4.500      6.275
REMARK INTER + INTRA:          -6.979
REMARK INTER:                  -6.785
REMARK INTRA:                  -0.194
REMARK UNBOUND:                -0.223
REMARK  Name = 
REMARK  6 active torsions:
REMARK  status: ('A' for Active; 'I' for Inactive)
REMARK    1  A    between atoms: C_1  and  N_2
REMARK    2  A    between atoms: N_2  and  C_3
REMARK    3  A    between atoms: N_2  and  C_4
REMARK    4  A    between atoms: C_4  and  C_5
REMARK    5  A    between atoms: C_5  and  C_6
REMARK    6  A    between atoms: C_11  and  O_12
REMARK                            x       y       z     vdW  Elec       q    Type
REMARK                         _______ _______ _______ _____ _____    ______ ____
ROOT
ATOM      1  C   UNL     1      96.614 107.749  92.982  0.00  0.00    +0.000 A 
ATOM      2  C   UNL     1      95.339 107.878  92.461  0.00  0.00    +0.000 A 
ATOM      3  N   UNL     1      94.602 108.646  93.326  0.00  0.00    +0.000 N 
ATOM      4  C   UNL     1      95.371 109.021  94.405  0.00  0.00    +0.000 A 
ATOM      5  C   UNL     1      95.052 109.823  95.509  0.00  0.00    +0.000 A 
ATOM      6  C   UNL     1      96.059 110.023  96.456  0.00  0.00    +0.000 A 
ATOM      7  C   UNL     1      97.314 109.446  96.328  0.00  0.00    +0.000 A 
ATOM      8  C   UNL     1      97.613 108.651  95.219  0.00  0.00    +0.000 A 
ATOM      9  C   UNL     1      96.629 108.444  94.229  0.00  0.00    +0.000 A 
ATOM     10  H   UNL     1      93.639 108.914  93.185  0.00  0.00    +0.000 HD
ENDROOT
BRANCH   6  11
ATOM     11  O   UNL     1      95.842 110.803  97.558  0.00  0.00    +0.000 OA
ATOM     12  H   UNL     1      95.062 111.356  97.392  0.00  0.00    +0.000 HD
ENDBRANCH   6  11
BRANCH   1  13
ATOM     13  C   UNL     1      97.766 107.028  92.356  0.00  0.00    +0.000 C 
BRANCH  13  14
ATOM     14  C   UNL     1      97.299 106.053  91.261  0.00  0.00    +0.000 C 
BRANCH  14  16
ATOM     15  C   UNL     1      98.675 107.417  89.843  0.00  0.00    +0.000 C 
ATOM     16  N   UNL     1      97.511 106.523  89.875  0.00  0.00    +0.000 NA
ATOM     17  C   UNL     1      97.725 105.412  88.945  0.00  0.00    +0.000 C 
ENDBRANCH  14  16
ENDBRANCH  13  14
ENDBRANCH   1  13
TORSDOF 4
ENDMDL
MODEL 7
REMARK VINA RESULT:    -5.412      4.582      6.513
REMARK INTER + INTRA:          -6.743
REMARK INTER:                  -6.454
REMARK INTRA:                  -0.290
REMARK UNBOUND:                -0.223
REMARK  Name = 
REMARK  6 active torsions:
REMARK  status: ('A' for Active; 'I' for Inactive)
REMARK    1  A    between atoms: C_1  and  N_2
REMARK    2  A    between atoms: N_2  and  C_3
REMARK    3  A    between atoms: N_2  and  C_4
REMARK    4  A    between atoms: C_4  and  C_5
REMARK    5  A    between atoms: C_5  and  C_6
REMARK    6  A    between atoms: C_11  and  O_12
REMARK                            x       y       z     vdW  Elec       q    Type
REMARK                         _______ _______ _______ _____ _____    ______ ____
ROOT
ATOM      1  C   UNL     1      96.596 108.410  94.748  0.00  0.00    +0.000 A 
ATOM      2  C   UNL     1      95.375 109.063  94.741  0.00  0.00    +0.000 A 
ATOM      3  N   UNL     1      94.764 108.807  93.540  0.00  0.00    +0.000 N 
ATOM      4  C   UNL     1      95.562 108.000  92.761  0.00  0.00    +0.000 A 
ATOM      5  C   UNL     1      95.336 107.464  91.485  0.00  0.00    +0.000 A 
ATOM      6  C   UNL     1      96.352 106.672  90.945  0.00  0.00    +0.000 A 
ATOM      7  C   UNL     1      97.538 106.433  91.623  0.00  0.00    +0.000 A 
ATOM      8  C   UNL     1      97.743 106.975  92.894  0.00  0.00    +0.000 A 
ATOM      9  C   UNL     1      96.731 107.762  93.483  0.00  0.00    +0.000 A 
ATOM     10  H   UNL     1      93.853 109.146  93.272  0.00  0.00    +0.000 HD
ENDROOT
BRANCH   6  11
ATOM     11  O   UNL     1      96.212 106.095  89.713  0.00  0.00    +0.000 OA
ATOM     12  H   UNL     1      96.383 106.771  89.038  0.00  0.00    +0.000 HD
ENDBRANCH   6  11
BRANCH   1  13
ATOM     13  C   UNL     1      97.584 108.377  95.872  0.00  0.00    +0.000 C 
BRANCH  13  14
ATOM     14  C   UNL     1      97.073 107.534  97.053  0.00  0.00    +0.000 C 
BRANCH  14  16
ATOM     15  C   UNL     1      97.347 109.639  98.171  0.00  0.00    +0.000 C 
ATOM     16  N   UNL     1      96.755 108.301  98.277  0.00  0.00    +0.000 NA
ATOM     17  C   UNL     1      95.312 108.421  98.489  0.00  0.00    +0.000 C 
ENDBRANCH  14  16
ENDBRANCH  13  14
ENDBRANCH   1  13
TORSDOF 4
ENDMDL
MODEL 8
REMARK VINA RESULT:    -5.341      4.386      5.971
REMARK INTER + INTRA:          -6.657
REMARK INTER:                  -6.491
REMARK INTRA:                  -0.166
REMARK UNBOUND:                -0.223
REMARK  Name = 
REMARK  6 active torsions:
REMARK  status: ('A' for Active; 'I' for Inactive)
REMARK    1  A    between atoms: C_1  and  N_2
REMARK    2  A    between atoms: N_2  and  C_3
REMARK    3  A    between atoms: N_2  and  C_4
REMARK    4  A    between atoms: C_4  and  C_5
REMARK    5  A    between atoms: C_5  and  C_6
REMARK    6  A    between atoms: C_11  and  O_12
REMARK                            x       y       z     vdW  Elec       q    Type
REMARK                         _______ _______ _______ _____ _____    ______ ____
ROOT
ATOM      1  C   UNL     1      97.175 107.149  92.784  0.00  0.00    +0.000 A 
ATOM      2  C   UNL     1      95.909 107.708  92.768  0.00  0.00    +0.000 A 
ATOM      3  N   UNL     1      95.540 107.960  94.064  0.00  0.00    +0.000 N 
ATOM      4  C   UNL     1      96.540 107.575  94.929  0.00  0.00    +0.000 A 
ATOM      5  C   UNL     1      96.616 107.670  96.325  0.00  0.00    +0.000 A 
ATOM      6  C   UNL     1      97.777 107.183  96.929  0.00  0.00    +0.000 A 
ATOM      7  C   UNL     1      98.807 106.615  96.192  0.00  0.00    +0.000 A 
ATOM      8  C   UNL     1      98.713 106.532  94.801  0.00  0.00    +0.000 A 
ATOM      9  C   UNL     1      97.565 107.034  94.153  0.00  0.00    +0.000 A 
ATOM     10  H   UNL     1      94.668 108.383  94.345  0.00  0.00    +0.000 HD
ENDROOT
BRANCH   6  11
ATOM     11  O   UNL     1      97.944 107.247  98.284  0.00  0.00    +0.000 OA
ATOM     12  H   UNL     1      98.521 108.001  98.485  0.00  0.00    +0.000 HD
ENDBRANCH   6  11
BRANCH   1  13
ATOM     13  C   UNL     1      97.990 106.751  91.594  0.00  0.00    +0.000 C 
BRANCH  13  14
ATOM     14  C   UNL     1      97.478 105.443  90.966  0.00  0.00    +0.000 C 
BRANCH  14  16
ATOM     15  C   UNL     1      96.699 105.110  88.720  0.00  0.00    +0.000 C 
ATOM     16  N   UNL     1      97.894 105.217  89.565  0.00  0.00    +0.000 NA
ATOM     17  C   UNL     1      98.749 106.296  89.066  0.00  0.00    +0.000 C 
ENDBRANCH  14  16
ENDBRANCH  13  14
ENDBRANCH   1  13
TORSDOF 4
ENDMDL
MODEL 9
REMARK VINA RESULT:    -5.299      9.061     10.583
REMARK INTER + INTRA:          -6.606
REMARK INTER:                  -6.252
REMARK INTRA:                  -0.354
REMARK UNBOUND:                -0.223
REMARK  Name = 
REMARK  6 active torsions:
REMARK  status: ('A' for Active; 'I' for Inactive)
REMARK    1  A    between atoms: C_1  and  N_2
REMARK    2  A    between atoms: N_2  and  C_3
REMARK    3  A    between atoms: N_2  and  C_4
REMARK    4  A    between atoms: C_4  and  C_5
REMARK    5  A    between atoms: C_5  and  C_6
REMARK    6  A    between atoms: C_11  and  O_12
REMARK                            x       y       z     vdW  Elec       q    Type
REMARK                         _______ _______ _______ _____ _____    ______ ____
ROOT
ATOM      1  C   UNL     1      95.089 113.535  95.012  0.00  0.00    +0.000 A 
ATOM      2  C   UNL     1      94.147 112.592  94.640  0.00  0.00    +0.000 A 
ATOM      3  N   UNL     1      93.371 113.135  93.649  0.00  0.00    +0.000 N 
ATOM      4  C   UNL     1      93.787 114.417  93.365  0.00  0.00    +0.000 A 
ATOM      5  C   UNL     1      93.314 115.332  92.414  0.00  0.00    +0.000 A 
ATOM      6  C   UNL     1      93.948 116.576  92.366  0.00  0.00    +0.000 A 
ATOM      7  C   UNL     1      94.986 116.906  93.226  0.00  0.00    +0.000 A 
ATOM      8  C   UNL     1      95.444 115.979  94.165  0.00  0.00    +0.000 A 
ATOM      9  C   UNL     1      94.844 114.703  94.228  0.00  0.00    +0.000 A 
ATOM     10  H   UNL     1      92.614 112.659  93.181  0.00  0.00    +0.000 HD
ENDROOT
BRANCH   6  11
ATOM     11  O   UNL     1      93.564 117.525  91.461  0.00  0.00    +0.000 OA
ATOM     12  H   UNL     1      93.151 118.259  91.944  0.00  0.00    +0.000 HD
ENDBRANCH   6  11
BRANCH   1  13
ATOM     13  C   UNL     1      96.171 113.363  96.032  0.00  0.00    +0.000 C 
BRANCH  13  14
ATOM     14  C   UNL     1      97.430 112.722  95.423  0.00  0.00    +0.000 C 
BRANCH  14  16
ATOM     15  C   UNL     1      98.666 114.195  93.986  0.00  0.00    +0.000 C 
ATOM     16  N   UNL     1      98.605 113.615  95.333  0.00  0.00    +0.000 NA
ATOM     17  C   UNL     1      98.554 114.690  96.325  0.00  0.00    +0.000 C 
ENDBRANCH  14  16
ENDBRANCH  13  14
ENDBRANCH   1  13
TORSDOF 4
ENDMDL
