MODEL 1
REMARK VINA RESULT:    -6.927      0.000      0.000
REMARK INTER + INTRA:         -10.459
REMARK INTER:                  -9.357
REMARK INTRA:                  -1.102
REMARK UNBOUND:                -1.102
REMARK  Name = 
REMARK  10 active torsions:
REMARK  status: ('A' for Active; 'I' for Inactive)
REMARK    1  A    between atoms: C_1  and  C_2
REMARK    2  A    between atoms: C_2  and  C_3
REMARK    3  A    between atoms: C_2  and  N_4
REMARK    4  A    between atoms: N_4  and  C_5
REMARK    5  A    between atoms: N_4  and  C_9
REMARK    6  A    between atoms: C_5  and  C_6
REMARK    7  A    between atoms: C_6  and  C_7
REMARK    8  A    between atoms: C_6  and  C_8
REMARK    9  A    between atoms: C_9  and  C_10
REMARK   10  A    between atoms: C_10  and  C_11
REMARK                            x       y       z     vdW  Elec       q    Type
REMARK                         _______ _______ _______ _____ _____    ______ ____
ROOT
ATOM      1  C   UNL     1      95.599 108.332  91.474  0.00  0.00    +0.000 C 
ENDROOT
BRANCH   1   2
ATOM      2  C   UNL     1      95.957 107.236  90.508  0.00  0.00    +0.000 A 
ATOM      3  C   UNL     1      95.114 106.264  90.006  0.00  0.00    +0.000 A 
ATOM      4  N   UNL     1      95.833 105.439  89.190  0.00  0.00    +0.000 N 
ATOM      5  C   UNL     1      97.122 105.898  89.065  0.00  0.00    +0.000 A 
ATOM      6  C   UNL     1      98.182 105.397  88.308  0.00  0.00    +0.000 A 
ATOM      7  C   UNL     1      99.394 106.087  88.356  0.00  0.00    +0.000 A 
ATOM      8  C   UNL     1      99.535 107.231  89.138  0.00  0.00    +0.000 A 
ATOM      9  C   UNL     1      98.465 107.711  89.905  0.00  0.00    +0.000 A 
ATOM     10  C   UNL     1      97.227 107.032  89.874  0.00  0.00    +0.000 A 
ATOM     11  H   UNL     1      95.467 104.622  88.724  0.00  0.00    +0.000 HD
ENDBRANCH   1   2
BRANCH   1  12
ATOM     12  C   UNL     1      94.999 107.856  92.822  0.00  0.00    +0.000 C 
BRANCH  12  13
ATOM     13  N   UNL     1      95.861 107.941  94.028  0.00  0.00    +0.000 NA
BRANCH  13  15
ATOM     14  C   UNL     1      97.991 106.580  93.660  0.00  0.00    +0.000 C 
ATOM     15  C   UNL     1      96.593 106.671  94.293  0.00  0.00    +0.000 C 
ATOM     16  C   UNL     1      96.708 106.339  95.789  0.00  0.00    +0.000 C 
ENDBRANCH  13  15
BRANCH  13  17
ATOM     17  C   UNL     1      96.756 109.121  93.996  0.00  0.00    +0.000 C 
BRANCH  17  18
ATOM     18  C   UNL     1      96.515 110.245  95.040  0.00  0.00    +0.000 C 
ATOM     19  C   UNL     1      95.106 110.229  95.640  0.00  0.00    +0.000 C 
ATOM     20  C   UNL     1      97.536 110.118  96.176  0.00  0.00    +0.000 C 
ENDBRANCH  17  18
ENDBRANCH  13  17
ENDBRANCH  12  13
ENDBRANCH   1  12
TORSDOF 6
ENDMDL
MODEL 2
REMARK VINA RESULT:    -6.734      2.064      3.228
REMARK INTER + INTRA:         -10.198
REMARK INTER:                  -9.276
REMARK INTRA:                  -0.922
REMARK UNBOUND:                -1.102
REMARK  Name = 
REMARK  10 active torsions:
REMARK  status: ('A' for Active; 'I' for Inactive)
REMARK    1  A    between atoms: C_1  and  C_2
REMARK    2  A    between atoms: C_2  and  C_3
REMARK    3  A    between atoms: C_2  and  N_4
REMARK    4  A    between atoms: N_4  and  C_5
REMARK    5  A    between atoms: N_4  and  C_9
REMARK    6  A    between atoms: C_5  and  C_6
REMARK    7  A    between atoms: C_6  and  C_7
REMARK    8  A    between atoms: C_6  and  C_8
REMARK    9  A    between atoms: C_9  and  C_10
REMARK   10  A    between atoms: C_10  and  C_11
REMARK                            x       y       z     vdW  Elec       q    Type
REMARK                         _______ _______ _______ _____ _____    ______ ____
ROOT
ATOM      1  C   UNL     1      96.835 109.278  94.036  0.00  0.00    +0.000 C 
ENDROOT
BRANCH   1   2
ATOM      2  C   UNL     1      97.062 107.968  93.333  0.00  0.00    +0.000 A 
ATOM      3  C   UNL     1      96.806 106.704  93.828  0.00  0.00    +0.000 A 
ATOM      4  N   UNL     1      97.183 105.782  92.895  0.00  0.00    +0.000 N 
ATOM      5  C   UNL     1      97.602 106.410  91.747  0.00  0.00    +0.000 A 
ATOM      6  C   UNL     1      98.034 105.868  90.535  0.00  0.00    +0.000 A 
ATOM      7  C   UNL     1      98.385 106.757  89.518  0.00  0.00    +0.000 A 
ATOM      8  C   UNL     1      98.309 108.134  89.714  0.00  0.00    +0.000 A 
ATOM      9  C   UNL     1      97.889 108.661  90.942  0.00  0.00    +0.000 A 
ATOM     10  C   UNL     1      97.527 107.784  91.989  0.00  0.00    +0.000 A 
ATOM     11  H   UNL     1      97.140 104.782  93.018  0.00  0.00    +0.000 HD
ENDBRANCH   1   2
BRANCH   1  12
ATOM     12  C   UNL     1      95.811 109.235  95.199  0.00  0.00    +0.000 C 
BRANCH  12  13
ATOM     13  N   UNL     1      96.328 109.426  96.579  0.00  0.00    +0.000 NA
BRANCH  13  15
ATOM     14  C   UNL     1      98.576 110.518  97.109  0.00  0.00    +0.000 C 
ATOM     15  C   UNL     1      97.806 109.265  96.658  0.00  0.00    +0.000 C 
ATOM     16  C   UNL     1      98.241 108.079  97.534  0.00  0.00    +0.000 C 
ENDBRANCH  13  15
BRANCH  13  17
ATOM     17  C   UNL     1      95.856 110.692  97.185  0.00  0.00    +0.000 C 
BRANCH  17  18
ATOM     18  C   UNL     1      95.037 110.608  98.501  0.00  0.00    +0.000 C 
ATOM     19  C   UNL     1      94.128 109.378  98.577  0.00  0.00    +0.000 C 
ATOM     20  C   UNL     1      95.993 110.589  99.700  0.00  0.00    +0.000 C 
ENDBRANCH  17  18
ENDBRANCH  13  17
ENDBRANCH  12  13
ENDBRANCH   1  12
TORSDOF 6
ENDMDL
MODEL 3
REMARK VINA RESULT:    -6.725      1.321      2.761
REMARK INTER + INTRA:         -10.186
REMARK INTER:                  -9.244
REMARK INTRA:                  -0.942
REMARK UNBOUND:                -1.102
REMARK  Name = 
REMARK  10 active torsions:
REMARK  status: ('A' for Active; 'I' for Inactive)
REMARK    1  A    between atoms: C_1  and  C_2
REMARK    2  A    between atoms: C_2  and  C_3
REMARK    3  A    between atoms: C_2  and  N_4
REMARK    4  A    between atoms: N_4  and  C_5
REMARK    5  A    between atoms: N_4  and  C_9
REMARK    6  A    between atoms: C_5  and  C_6
REMARK    7  A    between atoms: C_6  and  C_7
REMARK    8  A    between atoms: C_6  and  C_8
REMARK    9  A    between atoms: C_9  and  C_10
REMARK   10  A    between atoms: C_10  and  C_11
REMARK                            x       y       z     vdW  Elec       q    Type
REMARK                         _______ _______ _______ _____ _____    ______ ____
ROOT
ATOM      1  C   UNL     1      97.201 108.552  92.464  0.00  0.00    +0.000 C 
ENDROOT
BRANCH   1   2
ATOM      2  C   UNL     1      97.023 107.425  91.484  0.00  0.00    +0.000 A 
ATOM      3  C   UNL     1      95.970 106.532  91.427  0.00  0.00    +0.000 A 
ATOM      4  N   UNL     1      96.203 105.643  90.418  0.00  0.00    +0.000 N 
ATOM      5  C   UNL     1      97.349 105.982  89.740  0.00  0.00    +0.000 A 
ATOM      6  C   UNL     1      97.941 105.384  88.626  0.00  0.00    +0.000 A 
ATOM      7  C   UNL     1      99.109 105.961  88.127  0.00  0.00    +0.000 A 
ATOM      8  C   UNL     1      99.662 107.091  88.727  0.00  0.00    +0.000 A 
ATOM      9  C   UNL     1      99.064 107.667  89.855  0.00  0.00    +0.000 A 
ATOM     10  C   UNL     1      97.880 107.104  90.380  0.00  0.00    +0.000 A 
ATOM     11  H   UNL     1      95.609 104.862  90.186  0.00  0.00    +0.000 HD
ENDBRANCH   1   2
BRANCH   1  12
ATOM     12  C   UNL     1      96.235 108.532  93.677  0.00  0.00    +0.000 C 
BRANCH  12  13
ATOM     13  N   UNL     1      96.754 107.997  94.962  0.00  0.00    +0.000 NA
BRANCH  13  15
ATOM     14  C   UNL     1      95.084 109.728  95.825  0.00  0.00    +0.000 C 
ATOM     15  C   UNL     1      96.207 108.726  96.141  0.00  0.00    +0.000 C 
ATOM     16  C   UNL     1      95.730 107.790  97.263  0.00  0.00    +0.000 C 
ENDBRANCH  13  15
BRANCH  13  17
ATOM     17  C   UNL     1      96.585 106.530  95.068  0.00  0.00    +0.000 C 
BRANCH  17  18
ATOM     18  C   UNL     1      97.866 105.654  95.133  0.00  0.00    +0.000 C 
ATOM     19  C   UNL     1      99.139 106.454  95.425  0.00  0.00    +0.000 C 
ATOM     20  C   UNL     1      97.699 104.581  96.215  0.00  0.00    +0.000 C 
ENDBRANCH  17  18
ENDBRANCH  13  17
ENDBRANCH  12  13
ENDBRANCH   1  12
TORSDOF 6
ENDMDL
MODEL 4
REMARK VINA RESULT:    -6.586      2.121      3.735
REMARK INTER + INTRA:          -9.999
REMARK INTER:                  -9.242
REMARK INTRA:                  -0.756
REMARK UNBOUND:                -1.102
REMARK  Name = 
REMARK  10 active torsions:
REMARK  status: ('A' for Active; 'I' for Inactive)
REMARK    1  A    between atoms: C_1  and  C_2
REMARK    2  A    between atoms: C_2  and  C_3
REMARK    3  A    between atoms: C_2  and  N_4
REMARK    4  A    between atoms: N_4  and  C_5
REMARK    5  A    between atoms: N_4  and  C_9
REMARK    6  A    between atoms: C_5  and  C_6
REMARK    7  A    between atoms: C_6  and  C_7
REMARK    8  A    between atoms: C_6  and  C_8
REMARK    9  A    between atoms: C_9  and  C_10
REMARK   10  A    between atoms: C_10  and  C_11
REMARK                            x       y       z     vdW  Elec       q    Type
REMARK                         _______ _______ _______ _____ _____    ______ ____
ROOT
ATOM      1  C   UNL     1      96.815 109.280  94.019  0.00  0.00    +0.000 C 
ENDROOT
BRANCH   1   2
ATOM      2  C   UNL     1      97.074 107.985  93.300  0.00  0.00    +0.000 A 
ATOM      3  C   UNL     1      96.833 106.710  93.774  0.00  0.00    +0.000 A 
ATOM      4  N   UNL     1      97.239 105.809  92.833  0.00  0.00    +0.000 N 
ATOM      5  C   UNL     1      97.661 106.460  91.700  0.00  0.00    +0.000 A 
ATOM      6  C   UNL     1      98.119 105.944  90.487  0.00  0.00    +0.000 A 
ATOM      7  C   UNL     1      98.468 106.853  89.487  0.00  0.00    +0.000 A 
ATOM      8  C   UNL     1      98.365 108.225  89.702  0.00  0.00    +0.000 A 
ATOM      9  C   UNL     1      97.921 108.727  90.931  0.00  0.00    +0.000 A 
ATOM     10  C   UNL     1      97.560 107.829  91.960  0.00  0.00    +0.000 A 
ATOM     11  H   UNL     1      97.211 104.806  92.941  0.00  0.00    +0.000 HD
ENDBRANCH   1   2
BRANCH   1  12
ATOM     12  C   UNL     1      96.748 109.178  95.565  0.00  0.00    +0.000 C 
BRANCH  12  13
ATOM     13  N   UNL     1      95.952 110.201  96.290  0.00  0.00    +0.000 NA
BRANCH  13  15
ATOM     14  C   UNL     1      94.118 111.619  95.215  0.00  0.00    +0.000 C 
ATOM     15  C   UNL     1      95.621 111.373  95.432  0.00  0.00    +0.000 C 
ATOM     16  C   UNL     1      96.268 112.680  95.918  0.00  0.00    +0.000 C 
ENDBRANCH  13  15
BRANCH  13  17
ATOM     17  C   UNL     1      94.760 109.620  96.950  0.00  0.00    +0.000 C 
BRANCH  17  18
ATOM     18  C   UNL     1      94.748 109.557  98.502  0.00  0.00    +0.000 C 
ATOM     19  C   UNL     1      95.639 108.452  99.076  0.00  0.00    +0.000 C 
ATOM     20  C   UNL     1      95.203 110.905  99.073  0.00  0.00    +0.000 C 
ENDBRANCH  17  18
ENDBRANCH  13  17
ENDBRANCH  12  13
ENDBRANCH   1  12
TORSDOF 6
ENDMDL
MODEL 5
REMARK VINA RESULT:    -6.538      1.976      3.204
REMARK INTER + INTRA:          -9.934
REMARK INTER:                  -9.114
REMARK INTRA:                  -0.820
REMARK UNBOUND:                -1.102
REMARK  Name = 
REMARK  10 active torsions:
REMARK  status: ('A' for Active; 'I' for Inactive)
REMARK    1  A    between atoms: C_1  and  C_2
REMARK    2  A    between atoms: C_2  and  C_3
REMARK    3  A    between atoms: C_2  and  N_4
REMARK    4  A    between atoms: N_4  and  C_5
REMARK    5  A    between atoms: N_4  and  C_9
REMARK    6  A    between atoms: C_5  and  C_6
REMARK    7  A    between atoms: C_6  and  C_7
REMARK    8  A    between atoms: C_6  and  C_8
REMARK    9  A    between atoms: C_9  and  C_10
REMARK   10  A    between atoms: C_10  and  C_11
REMARK                            x       y       z     vdW  Elec       q    Type
REMARK                         _______ _______ _______ _____ _____    ______ ____
ROOT
ATOM      1  C   UNL     1      96.820 109.391  94.032  0.00  0.00    +0.000 C 
ENDROOT
BRANCH   1   2
ATOM      2  C   UNL     1      97.044 108.054  93.381  0.00  0.00    +0.000 A 
ATOM      3  C   UNL     1      96.780 106.812  93.925  0.00  0.00    +0.000 A 
ATOM      4  N   UNL     1      97.157 105.852  93.030  0.00  0.00    +0.000 N 
ATOM      5  C   UNL     1      97.582 106.433  91.860  0.00  0.00    +0.000 A 
ATOM      6  C   UNL     1      98.017 105.842  90.672  0.00  0.00    +0.000 A 
ATOM      7  C   UNL     1      98.376 106.688  89.622  0.00  0.00    +0.000 A 
ATOM      8  C   UNL     1      98.305 108.072  89.764  0.00  0.00    +0.000 A 
ATOM      9  C   UNL     1      97.884 108.649  90.969  0.00  0.00    +0.000 A 
ATOM     10  C   UNL     1      97.513 107.815  92.047  0.00  0.00    +0.000 A 
ATOM     11  H   UNL     1      97.108 104.857  93.192  0.00  0.00    +0.000 HD
ENDBRANCH   1   2
BRANCH   1  12
ATOM     12  C   UNL     1      96.671 109.360  95.574  0.00  0.00    +0.000 C 
BRANCH  12  13
ATOM     13  N   UNL     1      95.301 109.221  96.131  0.00  0.00    +0.000 NA
BRANCH  13  15
ATOM     14  C   UNL     1      96.651 108.324  98.106  0.00  0.00    +0.000 C 
ATOM     15  C   UNL     1      95.285 108.465  97.414  0.00  0.00    +0.000 C 
ATOM     16  C   UNL     1      94.274 109.020  98.432  0.00  0.00    +0.000 C 
ENDBRANCH  13  15
BRANCH  13  17
ATOM     17  C   UNL     1      94.599 110.522  96.225  0.00  0.00    +0.000 C 
BRANCH  17  18
ATOM     18  C   UNL     1      95.459 111.815  96.206  0.00  0.00    +0.000 C 
ATOM     19  C   UNL     1      94.891 112.914  95.304  0.00  0.00    +0.000 C 
ATOM     20  C   UNL     1      95.590 112.364  97.631  0.00  0.00    +0.000 C 
ENDBRANCH  17  18
ENDBRANCH  13  17
ENDBRANCH  12  13
ENDBRANCH   1  12
TORSDOF 6
ENDMDL
MODEL 6
REMARK VINA RESULT:    -6.536      1.751      2.333
REMARK INTER + INTRA:          -9.930
REMARK INTER:                  -9.149
REMARK INTRA:                  -0.782
REMARK UNBOUND:                -1.102
REMARK  Name = 
REMARK  10 active torsions:
REMARK  status: ('A' for Active; 'I' for Inactive)
REMARK    1  A    between atoms: C_1  and  C_2
REMARK    2  A    between atoms: C_2  and  C_3
REMARK    3  A    between atoms: C_2  and  N_4
REMARK    4  A    between atoms: N_4  and  C_5
REMARK    5  A    between atoms: N_4  and  C_9
REMARK    6  A    between atoms: C_5  and  C_6
REMARK    7  A    between atoms: C_6  and  C_7
REMARK    8  A    between atoms: C_6  and  C_8
REMARK    9  A    between atoms: C_9  and  C_10
REMARK   10  A    between atoms: C_10  and  C_11
REMARK                            x       y       z     vdW  Elec       q    Type
REMARK                         _______ _______ _______ _____ _____    ______ ____
ROOT
ATOM      1  C   UNL     1      96.803 108.631  93.102  0.00  0.00    +0.000 C 
ENDROOT
BRANCH   1   2
ATOM      2  C   UNL     1      96.268 107.675  92.072  0.00  0.00    +0.000 A 
ATOM      3  C   UNL     1      94.959 107.254  91.930  0.00  0.00    +0.000 A 
ATOM      4  N   UNL     1      94.895 106.361  90.900  0.00  0.00    +0.000 N 
ATOM      5  C   UNL     1      96.121 106.247  90.291  0.00  0.00    +0.000 A 
ATOM      6  C   UNL     1      96.506 105.487  89.185  0.00  0.00    +0.000 A 
ATOM      7  C   UNL     1      97.833 105.582  88.765  0.00  0.00    +0.000 A 
ATOM      8  C   UNL     1      98.738 106.403  89.435  0.00  0.00    +0.000 A 
ATOM      9  C   UNL     1      98.340 107.145  90.554  0.00  0.00    +0.000 A 
ATOM     10  C   UNL     1      97.001 107.069  90.999  0.00  0.00    +0.000 A 
ATOM     11  H   UNL     1      94.063 105.870  90.609  0.00  0.00    +0.000 HD
ENDBRANCH   1   2
BRANCH   1  12
ATOM     12  C   UNL     1      95.831 108.965  94.263  0.00  0.00    +0.000 C 
BRANCH  12  13
ATOM     13  N   UNL     1      96.000 108.223  95.538  0.00  0.00    +0.000 NA
BRANCH  13  15
ATOM     14  C   UNL     1      98.380 107.922  96.417  0.00  0.00    +0.000 C 
ATOM     15  C   UNL     1      97.231 107.384  95.547  0.00  0.00    +0.000 C 
ATOM     16  C   UNL     1      96.964 105.921  95.935  0.00  0.00    +0.000 C 
ENDBRANCH  13  15
BRANCH  13  17
ATOM     17  C   UNL     1      95.903 109.110  96.721  0.00  0.00    +0.000 C 
BRANCH  17  18
ATOM     18  C   UNL     1      95.163 108.570  97.975  0.00  0.00    +0.000 C 
ATOM     19  C   UNL     1      96.015 108.604  99.248  0.00  0.00    +0.000 C 
ATOM     20  C   UNL     1      93.889 109.389  98.212  0.00  0.00    +0.000 C 
ENDBRANCH  17  18
ENDBRANCH  13  17
ENDBRANCH  12  13
ENDBRANCH   1  12
TORSDOF 6
ENDMDL
MODEL 7
REMARK VINA RESULT:    -6.439      3.519      7.246
REMARK INTER + INTRA:          -9.800
REMARK INTER:                  -9.118
REMARK INTRA:                  -0.683
REMARK UNBOUND:                -1.102
REMARK  Name = 
REMARK  10 active torsions:
REMARK  status: ('A' for Active; 'I' for Inactive)
REMARK    1  A    between atoms: C_1  and  C_2
REMARK    2  A    between atoms: C_2  and  C_3
REMARK    3  A    between atoms: C_2  and  N_4
REMARK    4  A    between atoms: N_4  and  C_5
REMARK    5  A    between atoms: N_4  and  C_9
REMARK    6  A    between atoms: C_5  and  C_6
REMARK    7  A    between atoms: C_6  and  C_7
REMARK    8  A    between atoms: C_6  and  C_8
REMARK    9  A    between atoms: C_9  and  C_10
REMARK   10  A    between atoms: C_10  and  C_11
REMARK                            x       y       z     vdW  Elec       q    Type
REMARK                         _______ _______ _______ _____ _____    ______ ____
ROOT
ATOM      1  C   UNL     1      98.343 105.471  95.155  0.00  0.00    +0.000 C 
ENDROOT
BRANCH   1   2
ATOM      2  C   UNL     1      98.591 104.270  96.025  0.00  0.00    +0.000 A 
ATOM      3  C   UNL     1      98.379 102.946  95.693  0.00  0.00    +0.000 A 
ATOM      4  N   UNL     1      98.693 102.168  96.769  0.00  0.00    +0.000 N 
ATOM      5  C   UNL     1      99.200 102.941  97.784  0.00  0.00    +0.000 A 
ATOM      6  C   UNL     1      99.682 102.569  99.040  0.00  0.00    +0.000 A 
ATOM      7  C   UNL     1     100.162 103.579  99.875  0.00  0.00    +0.000 A 
ATOM      8  C   UNL     1     100.153 104.910  99.464  0.00  0.00    +0.000 A 
ATOM      9  C   UNL     1      99.649 105.269  98.207  0.00  0.00    +0.000 A 
ATOM     10  C   UNL     1      99.158 104.266  97.342  0.00  0.00    +0.000 A 
ATOM     11  H   UNL     1      98.591 101.164  96.808  0.00  0.00    +0.000 HD
ENDBRANCH   1   2
BRANCH   1  12
ATOM     12  C   UNL     1      96.858 105.733  94.796  0.00  0.00    +0.000 C 
BRANCH  12  13
ATOM     13  N   UNL     1      96.574 106.542  93.583  0.00  0.00    +0.000 NA
BRANCH  13  15
ATOM     14  C   UNL     1      97.075 108.995  94.091  0.00  0.00    +0.000 C 
ATOM     15  C   UNL     1      96.025 107.886  93.914  0.00  0.00    +0.000 C 
ATOM     16  C   UNL     1      94.963 108.370  92.913  0.00  0.00    +0.000 C 
ENDBRANCH  13  15
BRANCH  13  17
ATOM     17  C   UNL     1      97.737 106.608  92.668  0.00  0.00    +0.000 C 
BRANCH  17  18
ATOM     18  C   UNL     1      97.471 106.473  91.144  0.00  0.00    +0.000 C 
ATOM     19  C   UNL     1      98.393 107.343  90.284  0.00  0.00    +0.000 C 
ATOM     20  C   UNL     1      97.639 105.009  90.722  0.00  0.00    +0.000 C 
ENDBRANCH  17  18
ENDBRANCH  13  17
ENDBRANCH  12  13
ENDBRANCH   1  12
TORSDOF 6
ENDMDL
MODEL 8
REMARK VINA RESULT:    -6.321      2.261      3.917
REMARK INTER + INTRA:          -9.640
REMARK INTER:                  -8.580
REMARK INTRA:                  -1.061
REMARK UNBOUND:                -1.102
REMARK  Name = 
REMARK  10 active torsions:
REMARK  status: ('A' for Active; 'I' for Inactive)
REMARK    1  A    between atoms: C_1  and  C_2
REMARK    2  A    between atoms: C_2  and  C_3
REMARK    3  A    between atoms: C_2  and  N_4
REMARK    4  A    between atoms: N_4  and  C_5
REMARK    5  A    between atoms: N_4  and  C_9
REMARK    6  A    between atoms: C_5  and  C_6
REMARK    7  A    between atoms: C_6  and  C_7
REMARK    8  A    between atoms: C_6  and  C_8
REMARK    9  A    between atoms: C_9  and  C_10
REMARK   10  A    between atoms: C_10  and  C_11
REMARK                            x       y       z     vdW  Elec       q    Type
REMARK                         _______ _______ _______ _____ _____    ______ ____
ROOT
ATOM      1  C   UNL     1      96.571 109.044  94.738  0.00  0.00    +0.000 C 
ENDROOT
BRANCH   1   2
ATOM      2  C   UNL     1      96.908 107.855  93.882  0.00  0.00    +0.000 A 
ATOM      3  C   UNL     1      96.820 106.523  94.239  0.00  0.00    +0.000 A 
ATOM      4  N   UNL     1      97.252 105.759  93.194  0.00  0.00    +0.000 N 
ATOM      5  C   UNL     1      97.540 106.553  92.111  0.00  0.00    +0.000 A 
ATOM      6  C   UNL     1      97.970 106.201  90.830  0.00  0.00    +0.000 A 
ATOM      7  C   UNL     1      98.168 107.230  89.909  0.00  0.00    +0.000 A 
ATOM      8  C   UNL     1      97.947 108.559  90.263  0.00  0.00    +0.000 A 
ATOM      9  C   UNL     1      97.533 108.897  91.558  0.00  0.00    +0.000 A 
ATOM     10  C   UNL     1      97.323 107.874  92.510  0.00  0.00    +0.000 A 
ATOM     11  H   UNL     1      97.327 104.753  93.204  0.00  0.00    +0.000 HD
ENDBRANCH   1   2
BRANCH   1  12
ATOM     12  C   UNL     1      95.791 108.723  96.039  0.00  0.00    +0.000 C 
BRANCH  12  13
ATOM     13  N   UNL     1      96.520 108.847  97.328  0.00  0.00    +0.000 NA
BRANCH  13  15
ATOM     14  C   UNL     1      96.057 110.186  99.454  0.00  0.00    +0.000 C 
ATOM     15  C   UNL     1      95.603 109.089  98.476  0.00  0.00    +0.000 C 
ATOM     16  C   UNL     1      94.157 109.383  98.045  0.00  0.00    +0.000 C 
ENDBRANCH  13  15
BRANCH  13  17
ATOM     17  C   UNL     1      97.443 107.712  97.561  0.00  0.00    +0.000 C 
BRANCH  17  18
ATOM     18  C   UNL     1      98.969 108.001  97.540  0.00  0.00    +0.000 C 
ATOM     19  C   UNL     1      99.721 107.230  96.451  0.00  0.00    +0.000 C 
ATOM     20  C   UNL     1      99.205 109.501  97.336  0.00  0.00    +0.000 C 
ENDBRANCH  17  18
ENDBRANCH  13  17
ENDBRANCH  12  13
ENDBRANCH   1  12
TORSDOF 6
ENDMDL
MODEL 9
REMARK VINA RESULT:    -6.278      2.202      4.391
REMARK INTER + INTRA:          -9.583
REMARK INTER:                  -8.745
REMARK INTRA:                  -0.838
REMARK UNBOUND:                -1.102
REMARK  Name = 
REMARK  10 active torsions:
REMARK  status: ('A' for Active; 'I' for Inactive)
REMARK    1  A    between atoms: C_1  and  C_2
REMARK    2  A    between atoms: C_2  and  C_3
REMARK    3  A    between atoms: C_2  and  N_4
REMARK    4  A    between atoms: N_4  and  C_5
REMARK    5  A    between atoms: N_4  and  C_9
REMARK    6  A    between atoms: C_5  and  C_6
REMARK    7  A    between atoms: C_6  and  C_7
REMARK    8  A    between atoms: C_6  and  C_8
REMARK    9  A    between atoms: C_9  and  C_10
REMARK   10  A    between atoms: C_10  and  C_11
REMARK                            x       y       z     vdW  Elec       q    Type
REMARK                         _______ _______ _______ _____ _____    ______ ____
ROOT
ATOM      1  C   UNL     1      97.646 108.800  95.259  0.00  0.00    +0.000 C 
ENDROOT
BRANCH   1   2
ATOM      2  C   UNL     1      96.588 108.527  94.227  0.00  0.00    +0.000 A 
ATOM      3  C   UNL     1      95.294 109.011  94.217  0.00  0.00    +0.000 A 
ATOM      4  N   UNL     1      94.643 108.502  93.130  0.00  0.00    +0.000 N 
ATOM      5  C   UNL     1      95.508 107.760  92.362  0.00  0.00    +0.000 A 
ATOM      6  C   UNL     1      95.289 107.095  91.155  0.00  0.00    +0.000 A 
ATOM      7  C   UNL     1      96.370 106.426  90.579  0.00  0.00    +0.000 A 
ATOM      8  C   UNL     1      97.619 106.422  91.196  0.00  0.00    +0.000 A 
ATOM      9  C   UNL     1      97.817 107.080  92.417  0.00  0.00    +0.000 A 
ATOM     10  C   UNL     1      96.739 107.766  93.021  0.00  0.00    +0.000 A 
ATOM     11  H   UNL     1      93.673 108.665  92.906  0.00  0.00    +0.000 HD
ENDBRANCH   1   2
BRANCH   1  12
ATOM     12  C   UNL     1      97.117 109.124  96.680  0.00  0.00    +0.000 C 
BRANCH  12  13
ATOM     13  N   UNL     1      97.088 110.550  97.096  0.00  0.00    +0.000 NA
BRANCH  13  15
ATOM     14  C   UNL     1      97.017 112.360  95.295  0.00  0.00    +0.000 C 
ATOM     15  C   UNL     1      97.864 111.425  96.174  0.00  0.00    +0.000 C 
ATOM     16  C   UNL     1      98.936 112.261  96.891  0.00  0.00    +0.000 C 
ENDBRANCH  13  15
BRANCH  13  17
ATOM     17  C   UNL     1      95.709 111.039  97.325  0.00  0.00    +0.000 C 
BRANCH  17  18
ATOM     18  C   UNL     1      95.077 110.804  98.724  0.00  0.00    +0.000 C 
ATOM     19  C   UNL     1      94.264 109.509  98.817  0.00  0.00    +0.000 C 
ATOM     20  C   UNL     1      96.181 110.770  99.787  0.00  0.00    +0.000 C 
ENDBRANCH  17  18
ENDBRANCH  13  17
ENDBRANCH  12  13
ENDBRANCH   1  12
TORSDOF 6
ENDMDL
