MODEL 1
REMARK VINA RESULT:    -6.179      0.000      0.000
REMARK INTER + INTRA:          -7.558
REMARK INTER:                  -7.263
REMARK INTRA:                  -0.295
REMARK UNBOUND:                -0.295
REMARK  Name = 
REMARK  5 active torsions:
REMARK  status: ('A' for Active; 'I' for Inactive)
REMARK    1  A    between atoms: C_1  and  N_2
REMARK    2  A    between atoms: N_2  and  C_3
REMARK    3  A    between atoms: N_2  and  C_4
REMARK    4  A    between atoms: C_4  and  C_5
REMARK    5  A    between atoms: C_5  and  C_6
REMARK                            x       y       z     vdW  Elec       q    Type
REMARK                         _______ _______ _______ _____ _____    ______ ____
ROOT
ATOM      1  C   UNL     1      95.819 107.012  90.450  0.00  0.00    +0.000 A 
ATOM      2  C   UNL     1      95.013 106.027  89.912  0.00  0.00    +0.000 A 
ATOM      3  N   UNL     1      95.748 105.321  88.999  0.00  0.00    +0.000 N 
ATOM      4  C   UNL     1      97.028 105.815  88.935  0.00  0.00    +0.000 A 
ATOM      5  C   UNL     1      98.112 105.405  88.150  0.00  0.00    +0.000 A 
ATOM      6  C   UNL     1      99.319 106.092  88.304  0.00  0.00    +0.000 A 
ATOM      7  C   UNL     1      99.432 107.148  89.205  0.00  0.00    +0.000 A 
ATOM      8  C   UNL     1      98.335 107.550  89.976  0.00  0.00    +0.000 A 
ATOM      9  C   UNL     1      97.105 106.873  89.841  0.00  0.00    +0.000 A 
ATOM     10  H   UNL     1      95.405 104.544  88.453  0.00  0.00    +0.000 HD
ENDROOT
BRANCH   1  11
ATOM     11  C   UNL     1      95.410 108.026  91.477  0.00  0.00    +0.000 C 
BRANCH  11  12
ATOM     12  C   UNL     1      95.644 107.518  92.911  0.00  0.00    +0.000 C 
BRANCH  12  14
ATOM     13  C   UNL     1      97.078 108.557  94.539  0.00  0.00    +0.000 C 
ATOM     14  N   UNL     1      97.036 107.642  93.393  0.00  0.00    +0.000 NA
ATOM     15  C   UNL     1      97.606 106.349  93.780  0.00  0.00    +0.000 C 
ENDBRANCH  12  14
ENDBRANCH  11  12
ENDBRANCH   1  11
TORSDOF 3
ENDMDL
MODEL 2
REMARK VINA RESULT:    -6.073      2.107      4.360
REMARK INTER + INTRA:          -7.434
REMARK INTER:                  -7.415
REMARK INTRA:                  -0.019
REMARK UNBOUND:                -0.295
REMARK  Name = 
REMARK  5 active torsions:
REMARK  status: ('A' for Active; 'I' for Inactive)
REMARK    1  A    between atoms: C_1  and  N_2
REMARK    2  A    between atoms: N_2  and  C_3
REMARK    3  A    between atoms: N_2  and  C_4
REMARK    4  A    between atoms: C_4  and  C_5
REMARK    5  A    between atoms: C_5  and  C_6
REMARK                            x       y       z     vdW  Elec       q    Type
REMARK                         _______ _______ _______ _____ _____    ______ ____
ROOT
ATOM      1  C   UNL     1      95.582 106.172  89.785  0.00  0.00    +0.000 A 
ATOM      2  C   UNL     1      95.320 107.260  90.597  0.00  0.00    +0.000 A 
ATOM      3  N   UNL     1      96.467 107.998  90.711  0.00  0.00    +0.000 N 
ATOM      4  C   UNL     1      97.477 107.423  89.978  0.00  0.00    +0.000 A 
ATOM      5  C   UNL     1      98.805 107.830  89.803  0.00  0.00    +0.000 A 
ATOM      6  C   UNL     1      99.618 107.047  88.979  0.00  0.00    +0.000 A 
ATOM      7  C   UNL     1      99.121 105.903  88.360  0.00  0.00    +0.000 A 
ATOM      8  C   UNL     1      97.792 105.506  88.553  0.00  0.00    +0.000 A 
ATOM      9  C   UNL     1      96.949 106.279  89.378  0.00  0.00    +0.000 A 
ATOM     10  H   UNL     1      96.561 108.847  91.249  0.00  0.00    +0.000 HD
ENDROOT
BRANCH   1  11
ATOM     11  C   UNL     1      94.609 105.095  89.410  0.00  0.00    +0.000 C 
BRANCH  11  12
ATOM     12  C   UNL     1      95.175 103.689  89.684  0.00  0.00    +0.000 C 
BRANCH  12  14
ATOM     13  C   UNL     1      93.003 102.666  89.529  0.00  0.00    +0.000 C 
ATOM     14  N   UNL     1      94.399 102.581  89.086  0.00  0.00    +0.000 NA
ATOM     15  C   UNL     1      94.448 102.597  87.622  0.00  0.00    +0.000 C 
ENDBRANCH  12  14
ENDBRANCH  11  12
ENDBRANCH   1  11
TORSDOF 3
ENDMDL
MODEL 3
REMARK VINA RESULT:    -5.939      1.399      1.769
REMARK INTER + INTRA:          -7.276
REMARK INTER:                  -7.153
REMARK INTRA:                  -0.123
REMARK UNBOUND:                -0.295
REMARK  Name = 
REMARK  5 active torsions:
REMARK  status: ('A' for Active; 'I' for Inactive)
REMARK    1  A    between atoms: C_1  and  N_2
REMARK    2  A    between atoms: N_2  and  C_3
REMARK    3  A    between atoms: N_2  and  C_4
REMARK    4  A    between atoms: C_4  and  C_5
REMARK    5  A    between atoms: C_5  and  C_6
REMARK                            x       y       z     vdW  Elec       q    Type
REMARK                         _______ _______ _______ _____ _____    ______ ____
ROOT
ATOM      1  C   UNL     1      96.956 107.560  91.403  0.00  0.00    +0.000 A 
ATOM      2  C   UNL     1      95.844 106.740  91.454  0.00  0.00    +0.000 A 
ATOM      3  N   UNL     1      95.935 105.827  90.438  0.00  0.00    +0.000 N 
ATOM      4  C   UNL     1      97.094 106.022  89.727  0.00  0.00    +0.000 A 
ATOM      5  C   UNL     1      97.597 105.330  88.619  0.00  0.00    +0.000 A 
ATOM      6  C   UNL     1      98.827 105.744  88.101  0.00  0.00    +0.000 A 
ATOM      7  C   UNL     1      99.521 106.810  88.667  0.00  0.00    +0.000 A 
ATOM      8  C   UNL     1      98.999 107.497  89.770  0.00  0.00    +0.000 A 
ATOM      9  C   UNL     1      97.761 107.098  90.314  0.00  0.00    +0.000 A 
ATOM     10  H   UNL     1      95.255 105.109  90.241  0.00  0.00    +0.000 HD
ENDROOT
BRANCH   1  11
ATOM     11  C   UNL     1      97.250 108.708  92.321  0.00  0.00    +0.000 C 
BRANCH  11  12
ATOM     12  C   UNL     1      96.818 108.412  93.768  0.00  0.00    +0.000 C 
BRANCH  12  14
ATOM     13  C   UNL     1      95.275 109.820  94.962  0.00  0.00    +0.000 C 
ATOM     14  N   UNL     1      96.689 109.604  94.634  0.00  0.00    +0.000 NA
ATOM     15  C   UNL     1      97.463 109.477  95.871  0.00  0.00    +0.000 C 
ENDBRANCH  12  14
ENDBRANCH  11  12
ENDBRANCH   1  11
TORSDOF 3
ENDMDL
MODEL 4
REMARK VINA RESULT:    -5.890      1.595      4.772
REMARK INTER + INTRA:          -7.218
REMARK INTER:                  -6.996
REMARK INTRA:                  -0.222
REMARK UNBOUND:                -0.295
REMARK  Name = 
REMARK  5 active torsions:
REMARK  status: ('A' for Active; 'I' for Inactive)
REMARK    1  A    between atoms: C_1  and  N_2
REMARK    2  A    between atoms: N_2  and  C_3
REMARK    3  A    between atoms: N_2  and  C_4
REMARK    4  A    between atoms: C_4  and  C_5
REMARK    5  A    between atoms: C_5  and  C_6
REMARK                            x       y       z     vdW  Elec       q    Type
REMARK                         _______ _______ _______ _____ _____    ______ ____
ROOT
ATOM      1  C   UNL     1      97.779 106.630  90.398  0.00  0.00    +0.000 A 
ATOM      2  C   UNL     1      97.812 107.892  89.836  0.00  0.00    +0.000 A 
ATOM      3  N   UNL     1      97.615 108.811  90.830  0.00  0.00    +0.000 N 
ATOM      4  C   UNL     1      97.466 108.178  92.040  0.00  0.00    +0.000 A 
ATOM      5  C   UNL     1      97.249 108.714  93.315  0.00  0.00    +0.000 A 
ATOM      6  C   UNL     1      97.148 107.819  94.384  0.00  0.00    +0.000 A 
ATOM      7  C   UNL     1      97.256 106.446  94.182  0.00  0.00    +0.000 A 
ATOM      8  C   UNL     1      97.464 105.927  92.898  0.00  0.00    +0.000 A 
ATOM      9  C   UNL     1      97.572 106.807  91.802  0.00  0.00    +0.000 A 
ATOM     10  H   UNL     1      97.589 109.812  90.699  0.00  0.00    +0.000 HD
ENDROOT
BRANCH   1  11
ATOM     11  C   UNL     1      97.933 105.331  89.664  0.00  0.00    +0.000 C 
BRANCH  11  12
ATOM     12  C   UNL     1      96.663 104.963  88.876  0.00  0.00    +0.000 C 
BRANCH  12  14
ATOM     13  C   UNL     1      94.506 105.846  89.473  0.00  0.00    +0.000 C 
ATOM     14  N   UNL     1      95.456 104.753  89.705  0.00  0.00    +0.000 NA
ATOM     15  C   UNL     1      94.805 103.472  89.421  0.00  0.00    +0.000 C 
ENDBRANCH  12  14
ENDBRANCH  11  12
ENDBRANCH   1  11
TORSDOF 3
ENDMDL
MODEL 5
REMARK VINA RESULT:    -5.782      2.090      3.135
REMARK INTER + INTRA:          -7.091
REMARK INTER:                  -6.887
REMARK INTRA:                  -0.204
REMARK UNBOUND:                -0.295
REMARK  Name = 
REMARK  5 active torsions:
REMARK  status: ('A' for Active; 'I' for Inactive)
REMARK    1  A    between atoms: C_1  and  N_2
REMARK    2  A    between atoms: N_2  and  C_3
REMARK    3  A    between atoms: N_2  and  C_4
REMARK    4  A    between atoms: C_4  and  C_5
REMARK    5  A    between atoms: C_5  and  C_6
REMARK                            x       y       z     vdW  Elec       q    Type
REMARK                         _______ _______ _______ _____ _____    ______ ____
ROOT
ATOM      1  C   UNL     1      97.082 107.878  93.350  0.00  0.00    +0.000 A 
ATOM      2  C   UNL     1      96.938 106.603  93.865  0.00  0.00    +0.000 A 
ATOM      3  N   UNL     1      97.263 105.705  92.885  0.00  0.00    +0.000 N 
ATOM      4  C   UNL     1      97.631 106.365  91.738  0.00  0.00    +0.000 A 
ATOM      5  C   UNL     1      98.040 105.857  90.499  0.00  0.00    +0.000 A 
ATOM      6  C   UNL     1      98.373 106.776  89.501  0.00  0.00    +0.000 A 
ATOM      7  C   UNL     1      98.295 108.146  89.734  0.00  0.00    +0.000 A 
ATOM      8  C   UNL     1      97.876 108.637  90.976  0.00  0.00    +0.000 A 
ATOM      9  C   UNL     1      97.536 107.732  92.002  0.00  0.00    +0.000 A 
ATOM     10  H   UNL     1      97.242 104.701  92.988  0.00  0.00    +0.000 HD
ENDROOT
BRANCH   1  11
ATOM     11  C   UNL     1      96.812 109.161  94.079  0.00  0.00    +0.000 C 
BRANCH  11  12
ATOM     12  C   UNL     1      95.472 109.120  94.836  0.00  0.00    +0.000 C 
BRANCH  12  14
ATOM     13  C   UNL     1      94.387 110.122  96.735  0.00  0.00    +0.000 C 
ATOM     14  N   UNL     1      95.571 109.380  96.288  0.00  0.00    +0.000 NA
ATOM     15  C   UNL     1      95.694 108.143  97.065  0.00  0.00    +0.000 C 
ENDBRANCH  12  14
ENDBRANCH  11  12
ENDBRANCH   1  11
TORSDOF 3
ENDMDL
MODEL 6
REMARK VINA RESULT:    -5.441      8.047     10.074
REMARK INTER + INTRA:          -6.691
REMARK INTER:                  -6.443
REMARK INTRA:                  -0.248
REMARK UNBOUND:                -0.295
REMARK  Name = 
REMARK  5 active torsions:
REMARK  status: ('A' for Active; 'I' for Inactive)
REMARK    1  A    between atoms: C_1  and  N_2
REMARK    2  A    between atoms: N_2  and  C_3
REMARK    3  A    between atoms: N_2  and  C_4
REMARK    4  A    between atoms: C_4  and  C_5
REMARK    5  A    between atoms: C_5  and  C_6
REMARK                            x       y       z     vdW  Elec       q    Type
REMARK                         _______ _______ _______ _____ _____    ______ ____
ROOT
ATOM      1  C   UNL     1      99.834 104.480  98.167  0.00  0.00    +0.000 A 
ATOM      2  C   UNL     1     100.248 103.438  97.358  0.00  0.00    +0.000 A 
ATOM      3  N   UNL     1     100.283 102.297  98.112  0.00  0.00    +0.000 N 
ATOM      4  C   UNL     1      99.887 102.564  99.400  0.00  0.00    +0.000 A 
ATOM      5  C   UNL     1      99.769 101.708 100.501  0.00  0.00    +0.000 A 
ATOM      6  C   UNL     1      99.322 102.260 101.704  0.00  0.00    +0.000 A 
ATOM      7  C   UNL     1      99.011 103.614 101.800  0.00  0.00    +0.000 A 
ATOM      8  C   UNL     1      99.143 104.457 100.690  0.00  0.00    +0.000 A 
ATOM      9  C   UNL     1      99.590 103.926  99.463  0.00  0.00    +0.000 A 
ATOM     10  H   UNL     1     100.555 101.385  97.773  0.00  0.00    +0.000 HD
ENDROOT
BRANCH   1  11
ATOM     11  C   UNL     1      99.673 105.912  97.751  0.00  0.00    +0.000 C 
BRANCH  11  12
ATOM     12  C   UNL     1     100.968 106.482  97.145  0.00  0.00    +0.000 C 
BRANCH  12  14
ATOM     13  C   UNL     1     100.890 107.893  99.093  0.00  0.00    +0.000 C 
ATOM     14  N   UNL     1     101.767 107.320  98.066  0.00  0.00    +0.000 NA
ATOM     15  C   UNL     1     102.844 106.564  98.710  0.00  0.00    +0.000 C 
ENDBRANCH  12  14
ENDBRANCH  11  12
ENDBRANCH   1  11
TORSDOF 3
ENDMDL
MODEL 7
REMARK VINA RESULT:    -5.440      2.166      3.540
REMARK INTER + INTRA:          -6.690
REMARK INTER:                  -6.523
REMARK INTRA:                  -0.167
REMARK UNBOUND:                -0.295
REMARK  Name = 
REMARK  5 active torsions:
REMARK  status: ('A' for Active; 'I' for Inactive)
REMARK    1  A    between atoms: C_1  and  N_2
REMARK    2  A    between atoms: N_2  and  C_3
REMARK    3  A    between atoms: N_2  and  C_4
REMARK    4  A    between atoms: C_4  and  C_5
REMARK    5  A    between atoms: C_5  and  C_6
REMARK                            x       y       z     vdW  Elec       q    Type
REMARK                         _______ _______ _______ _____ _____    ______ ____
ROOT
ATOM      1  C   UNL     1      97.011 106.954  93.192  0.00  0.00    +0.000 A 
ATOM      2  C   UNL     1      96.044 107.939  93.268  0.00  0.00    +0.000 A 
ATOM      3  N   UNL     1      95.385 107.988  92.069  0.00  0.00    +0.000 N 
ATOM      4  C   UNL     1      95.892 107.045  91.209  0.00  0.00    +0.000 A 
ATOM      5  C   UNL     1      95.527 106.738  89.893  0.00  0.00    +0.000 A 
ATOM      6  C   UNL     1      96.216 105.704  89.254  0.00  0.00    +0.000 A 
ATOM      7  C   UNL     1      97.232 105.010  89.907  0.00  0.00    +0.000 A 
ATOM      8  C   UNL     1      97.590 105.335  91.221  0.00  0.00    +0.000 A 
ATOM      9  C   UNL     1      96.910 106.373  91.889  0.00  0.00    +0.000 A 
ATOM     10  H   UNL     1      94.631 108.621  91.847  0.00  0.00    +0.000 HD
ENDROOT
BRANCH   1  11
ATOM     11  C   UNL     1      97.975 106.577  94.277  0.00  0.00    +0.000 C 
BRANCH  11  12
ATOM     12  C   UNL     1      97.435 105.430  95.151  0.00  0.00    +0.000 C 
BRANCH  12  14
ATOM     13  C   UNL     1      99.444 105.258  96.465  0.00  0.00    +0.000 C 
ATOM     14  N   UNL     1      98.468 104.506  95.668  0.00  0.00    +0.000 NA
ATOM     15  C   UNL     1      97.893 103.435  96.485  0.00  0.00    +0.000 C 
ENDBRANCH  12  14
ENDBRANCH  11  12
ENDBRANCH   1  11
TORSDOF 3
ENDMDL
MODEL 8
REMARK VINA RESULT:    -5.376      1.746      5.756
REMARK INTER + INTRA:          -6.614
REMARK INTER:                  -6.422
REMARK INTRA:                  -0.192
REMARK UNBOUND:                -0.295
REMARK  Name = 
REMARK  5 active torsions:
REMARK  status: ('A' for Active; 'I' for Inactive)
REMARK    1  A    between atoms: C_1  and  N_2
REMARK    2  A    between atoms: N_2  and  C_3
REMARK    3  A    between atoms: N_2  and  C_4
REMARK    4  A    between atoms: C_4  and  C_5
REMARK    5  A    between atoms: C_5  and  C_6
REMARK                            x       y       z     vdW  Elec       q    Type
REMARK                         _______ _______ _______ _____ _____    ______ ____
ROOT
ATOM      1  C   UNL     1      96.608 107.755  92.922  0.00  0.00    +0.000 A 
ATOM      2  C   UNL     1      95.333 107.871  92.399  0.00  0.00    +0.000 A 
ATOM      3  N   UNL     1      94.586 108.637  93.252  0.00  0.00    +0.000 N 
ATOM      4  C   UNL     1      95.349 109.038  94.322  0.00  0.00    +0.000 A 
ATOM      5  C   UNL     1      95.006 109.826  95.427  0.00  0.00    +0.000 A 
ATOM      6  C   UNL     1      96.003 110.089  96.369  0.00  0.00    +0.000 A 
ATOM      7  C   UNL     1      97.289 109.579  96.213  0.00  0.00    +0.000 A 
ATOM      8  C   UNL     1      97.613 108.785  95.106  0.00  0.00    +0.000 A 
ATOM      9  C   UNL     1      96.626 108.506  94.138  0.00  0.00    +0.000 A 
ATOM     10  H   UNL     1      93.616 108.880  93.116  0.00  0.00    +0.000 HD
ENDROOT
BRANCH   1  11
ATOM     11  C   UNL     1      97.744 106.985  92.317  0.00  0.00    +0.000 C 
BRANCH  11  12
ATOM     12  C   UNL     1      97.686 106.990  90.779  0.00  0.00    +0.000 C 
BRANCH  12  14
ATOM     13  C   UNL     1      96.577 105.027  89.937  0.00  0.00    +0.000 C 
ATOM     14  N   UNL     1      97.881 105.667  90.147  0.00  0.00    +0.000 NA
ATOM     15  C   UNL     1      98.588 105.763  88.867  0.00  0.00    +0.000 C 
ENDBRANCH  12  14
ENDBRANCH  11  12
ENDBRANCH   1  11
TORSDOF 3
ENDMDL
MODEL 9
REMARK VINA RESULT:    -5.199      1.714      5.613
REMARK INTER + INTRA:          -6.406
REMARK INTER:                  -6.148
REMARK INTRA:                  -0.258
REMARK UNBOUND:                -0.295
REMARK  Name = 
REMARK  5 active torsions:
REMARK  status: ('A' for Active; 'I' for Inactive)
REMARK    1  A    between atoms: C_1  and  N_2
REMARK    2  A    between atoms: N_2  and  C_3
REMARK    3  A    between atoms: N_2  and  C_4
REMARK    4  A    between atoms: C_4  and  C_5
REMARK    5  A    between atoms: C_5  and  C_6
REMARK                            x       y       z     vdW  Elec       q    Type
REMARK                         _______ _______ _______ _____ _____    ______ ____
ROOT
ATOM      1  C   UNL     1      97.178 107.344  92.951  0.00  0.00    +0.000 A 
ATOM      2  C   UNL     1      95.959 107.992  93.025  0.00  0.00    +0.000 A 
ATOM      3  N   UNL     1      95.604 108.093  94.342  0.00  0.00    +0.000 N 
ATOM      4  C   UNL     1      96.573 107.534  95.140  0.00  0.00    +0.000 A 
ATOM      5  C   UNL     1      96.633 107.415  96.533  0.00  0.00    +0.000 A 
ATOM      6  C   UNL     1      97.763 106.803  97.082  0.00  0.00    +0.000 A 
ATOM      7  C   UNL     1      98.788 106.327  96.268  0.00  0.00    +0.000 A 
ATOM      8  C   UNL     1      98.707 106.447  94.875  0.00  0.00    +0.000 A 
ATOM      9  C   UNL     1      97.579 107.062  94.295  0.00  0.00    +0.000 A 
ATOM     10  H   UNL     1      94.757 108.521  94.684  0.00  0.00    +0.000 HD
ENDROOT
BRANCH   1  11
ATOM     11  C   UNL     1      97.926 107.008  91.696  0.00  0.00    +0.000 C 
BRANCH  11  12
ATOM     12  C   UNL     1      97.188 107.502  90.438  0.00  0.00    +0.000 C 
BRANCH  12  14
ATOM     13  C   UNL     1      97.454 105.211  89.754  0.00  0.00    +0.000 C 
ATOM     14  N   UNL     1      96.659 106.429  89.568  0.00  0.00    +0.000 NA
ATOM     15  C   UNL     1      95.250 106.139  89.841  0.00  0.00    +0.000 C 
ENDBRANCH  12  14
ENDBRANCH  11  12
ENDBRANCH   1  11
TORSDOF 3
ENDMDL
