MODEL 1
REMARK VINA RESULT:    -5.643      0.000      0.000
REMARK INTER + INTRA:          -7.758
REMARK INTER:                  -7.457
REMARK INTRA:                  -0.301
REMARK UNBOUND:                -0.301
REMARK  Name = 
REMARK  10 active torsions:
REMARK  status: ('A' for Active; 'I' for Inactive)
REMARK    1  A    between atoms: C_1  and  C_2
REMARK    2  A    between atoms: C_2  and  N_3
REMARK    3  A    between atoms: C_2  and  C_4
REMARK    4  A    between atoms: C_4  and  C_5
REMARK    5  A    between atoms: C_7  and  O_8
REMARK    6  A    between atoms: O_8  and  C_9
REMARK    7  A    between atoms: C_10  and  C_11
REMARK    8  A    between atoms: C_11  and  C_12
REMARK    9  A    between atoms: C_14  and  O_15
REMARK   10  A    between atoms: O_15  and  C_16
REMARK                            x       y       z     vdW  Elec       q    Type
REMARK                         _______ _______ _______ _____ _____    ______ ____
ROOT
ATOM      1  C   UNL     1      97.460 106.978  91.474  0.00  0.00    +0.000 A 
ATOM      2  C   UNL     1      98.030 106.873  92.755  0.00  0.00    +0.000 A 
ATOM      3  C   UNL     1      97.417 107.432  93.887  0.00  0.00    +0.000 A 
ATOM      4  C   UNL     1      96.172 108.065  93.757  0.00  0.00    +0.000 A 
ATOM      5  C   UNL     1      95.553 108.090  92.497  0.00  0.00    +0.000 A 
ATOM      6  C   UNL     1      96.190 107.581  91.363  0.00  0.00    +0.000 A 
ENDROOT
BRANCH   3   7
ATOM      7  O   UNL     1      97.949 107.414  95.148  0.00  0.00    +0.000 OA
ATOM      8  C   UNL     1      98.976 106.460  95.408  0.00  0.00    +0.000 C 
ENDBRANCH   3   7
BRANCH   4   9
ATOM      9  C   UNL     1      95.472 108.730  94.922  0.00  0.00    +0.000 C 
ATOM     10  C   UNL     1      94.974 110.130  94.602  0.00  0.00    +0.000 C 
ENDBRANCH   4   9
BRANCH   6  11
ATOM     11  O   UNL     1      95.635 107.611  90.105  0.00  0.00    +0.000 OA
ATOM     12  C   UNL     1      94.830 106.495  89.735  0.00  0.00    +0.000 C 
ENDBRANCH   6  11
BRANCH   1  13
ATOM     13  C   UNL     1      98.159 106.481  90.215  0.00  0.00    +0.000 C 
BRANCH  13  15
ATOM     14  C   UNL     1      99.612 106.711  88.161  0.00  0.00    +0.000 C 
ATOM     15  C   UNL     1      99.199 107.372  89.483  0.00  0.00    +0.000 C 
BRANCH  15  16
ATOM     16  N   UNL     1      98.716 108.717  89.138  0.00  0.00    +0.000 NA
ATOM     17  H   UNL     1      97.815 108.883  89.584  0.00  0.00    +0.000 HD
ATOM     18  H   UNL     1      99.336 109.430  89.514  0.00  0.00    +0.000 HD
ENDBRANCH  15  16
ENDBRANCH  13  15
ENDBRANCH   1  13
TORSDOF 6
ENDMDL
MODEL 2
REMARK VINA RESULT:    -5.642      7.092      9.464
REMARK INTER + INTRA:          -7.757
REMARK INTER:                  -7.297
REMARK INTRA:                  -0.460
REMARK UNBOUND:                -0.301
REMARK  Name = 
REMARK  10 active torsions:
REMARK  status: ('A' for Active; 'I' for Inactive)
REMARK    1  A    between atoms: C_1  and  C_2
REMARK    2  A    between atoms: C_2  and  N_3
REMARK    3  A    between atoms: C_2  and  C_4
REMARK    4  A    between atoms: C_4  and  C_5
REMARK    5  A    between atoms: C_7  and  O_8
REMARK    6  A    between atoms: O_8  and  C_9
REMARK    7  A    between atoms: C_10  and  C_11
REMARK    8  A    between atoms: C_11  and  C_12
REMARK    9  A    between atoms: C_14  and  O_15
REMARK   10  A    between atoms: O_15  and  C_16
REMARK                            x       y       z     vdW  Elec       q    Type
REMARK                         _______ _______ _______ _____ _____    ______ ____
ROOT
ATOM      1  C   UNL     1     100.706 103.880  98.822  0.00  0.00    +0.000 A 
ATOM      2  C   UNL     1      99.764 103.370  99.732  0.00  0.00    +0.000 A 
ATOM      3  C   UNL     1      99.817 103.674 101.101  0.00  0.00    +0.000 A 
ATOM      4  C   UNL     1     100.800 104.555 101.576  0.00  0.00    +0.000 A 
ATOM      5  C   UNL     1     101.685 105.141 100.658  0.00  0.00    +0.000 A 
ATOM      6  C   UNL     1     101.663 104.797  99.304  0.00  0.00    +0.000 A 
ENDROOT
BRANCH   3   7
ATOM      7  O   UNL     1      98.966 103.163 102.044  0.00  0.00    +0.000 OA
ATOM      8  C   UNL     1      98.960 101.749 102.218  0.00  0.00    +0.000 C 
ENDBRANCH   3   7
BRANCH   4   9
ATOM      9  C   UNL     1     100.948 104.893 103.043  0.00  0.00    +0.000 C 
ATOM     10  C   UNL     1     101.072 106.386 103.304  0.00  0.00    +0.000 C 
ENDBRANCH   4   9
BRANCH   6  11
ATOM     11  O   UNL     1     102.530 105.323  98.375  0.00  0.00    +0.000 OA
ATOM     12  C   UNL     1     102.956 106.666  98.588  0.00  0.00    +0.000 C 
ENDBRANCH   6  11
BRANCH   1  13
ATOM     13  C   UNL     1     100.739 103.477  97.353  0.00  0.00    +0.000 C 
BRANCH  13  15
ATOM     14  C   UNL     1      98.448 103.059  96.374  0.00  0.00    +0.000 C 
ATOM     15  C   UNL     1      99.661 103.998  96.364  0.00  0.00    +0.000 C 
BRANCH  15  16
ATOM     16  N   UNL     1      99.146 105.340  96.674  0.00  0.00    +0.000 NA
ATOM     17  H   UNL     1      99.866 105.883  97.149  0.00  0.00    +0.000 HD
ATOM     18  H   UNL     1      98.943 105.854  95.821  0.00  0.00    +0.000 HD
ENDBRANCH  15  16
ENDBRANCH  13  15
ENDBRANCH   1  13
TORSDOF 6
ENDMDL
MODEL 3
REMARK VINA RESULT:    -5.592      2.905      5.424
REMARK INTER + INTRA:          -7.690
REMARK INTER:                  -7.388
REMARK INTRA:                  -0.303
REMARK UNBOUND:                -0.301
REMARK  Name = 
REMARK  10 active torsions:
REMARK  status: ('A' for Active; 'I' for Inactive)
REMARK    1  A    between atoms: C_1  and  C_2
REMARK    2  A    between atoms: C_2  and  N_3
REMARK    3  A    between atoms: C_2  and  C_4
REMARK    4  A    between atoms: C_4  and  C_5
REMARK    5  A    between atoms: C_7  and  O_8
REMARK    6  A    between atoms: O_8  and  C_9
REMARK    7  A    between atoms: C_10  and  C_11
REMARK    8  A    between atoms: C_11  and  C_12
REMARK    9  A    between atoms: C_14  and  O_15
REMARK   10  A    between atoms: O_15  and  C_16
REMARK                            x       y       z     vdW  Elec       q    Type
REMARK                         _______ _______ _______ _____ _____    ______ ____
ROOT
ATOM      1  C   UNL     1      97.557 105.894  94.054  0.00  0.00    +0.000 A 
ATOM      2  C   UNL     1      97.736 105.289  92.797  0.00  0.00    +0.000 A 
ATOM      3  C   UNL     1      97.585 106.008  91.602  0.00  0.00    +0.000 A 
ATOM      4  C   UNL     1      97.305 107.382  91.651  0.00  0.00    +0.000 A 
ATOM      5  C   UNL     1      97.219 108.010  92.903  0.00  0.00    +0.000 A 
ATOM      6  C   UNL     1      97.317 107.283  94.092  0.00  0.00    +0.000 A 
ENDROOT
BRANCH   3   7
ATOM      7  O   UNL     1      97.689 105.463  90.350  0.00  0.00    +0.000 OA
ATOM      8  C   UNL     1      96.547 104.779  89.840  0.00  0.00    +0.000 C 
ENDBRANCH   3   7
BRANCH   4   9
ATOM      9  C   UNL     1      97.084 108.211  90.406  0.00  0.00    +0.000 C 
ATOM     10  C   UNL     1      98.373 108.764  89.818  0.00  0.00    +0.000 C 
ENDBRANCH   4   9
BRANCH   6  11
ATOM     11  O   UNL     1      97.208 107.852  95.339  0.00  0.00    +0.000 OA
ATOM     12  C   UNL     1      96.013 108.581  95.606  0.00  0.00    +0.000 C 
ENDBRANCH   6  11
BRANCH   1  13
ATOM     13  C   UNL     1      97.603 105.113  95.361  0.00  0.00    +0.000 C 
BRANCH  13  15
ATOM     14  C   UNL     1      99.478 103.672  96.251  0.00  0.00    +0.000 C 
ATOM     15  C   UNL     1      98.197 103.678  95.407  0.00  0.00    +0.000 C 
BRANCH  15  16
ATOM     16  N   UNL     1      97.309 102.668  95.998  0.00  0.00    +0.000 NA
ATOM     17  H   UNL     1      96.789 103.079  96.773  0.00  0.00    +0.000 HD
ATOM     18  H   UNL     1      96.603 102.372  95.329  0.00  0.00    +0.000 HD
ENDBRANCH  15  16
ENDBRANCH  13  15
ENDBRANCH   1  13
TORSDOF 6
ENDMDL
MODEL 4
REMARK VINA RESULT:    -5.586      2.002      5.659
REMARK INTER + INTRA:          -7.684
REMARK INTER:                  -7.227
REMARK INTRA:                  -0.456
REMARK UNBOUND:                -0.301
REMARK  Name = 
REMARK  10 active torsions:
REMARK  status: ('A' for Active; 'I' for Inactive)
REMARK    1  A    between atoms: C_1  and  C_2
REMARK    2  A    between atoms: C_2  and  N_3
REMARK    3  A    between atoms: C_2  and  C_4
REMARK    4  A    between atoms: C_4  and  C_5
REMARK    5  A    between atoms: C_7  and  O_8
REMARK    6  A    between atoms: O_8  and  C_9
REMARK    7  A    between atoms: C_10  and  C_11
REMARK    8  A    between atoms: C_11  and  C_12
REMARK    9  A    between atoms: C_14  and  O_15
REMARK   10  A    between atoms: O_15  and  C_16
REMARK                            x       y       z     vdW  Elec       q    Type
REMARK                         _______ _______ _______ _____ _____    ______ ____
ROOT
ATOM      1  C   UNL     1      96.192 107.657  93.142  0.00  0.00    +0.000 A 
ATOM      2  C   UNL     1      95.491 107.609  91.925  0.00  0.00    +0.000 A 
ATOM      3  C   UNL     1      95.948 106.849  90.837  0.00  0.00    +0.000 A 
ATOM      4  C   UNL     1      97.104 106.067  90.976  0.00  0.00    +0.000 A 
ATOM      5  C   UNL     1      97.756 106.037  92.219  0.00  0.00    +0.000 A 
ATOM      6  C   UNL     1      97.330 106.835  93.284  0.00  0.00    +0.000 A 
ENDROOT
BRANCH   3   7
ATOM      7  O   UNL     1      95.342 106.809  89.609  0.00  0.00    +0.000 OA
ATOM      8  C   UNL     1      94.260 105.896  89.447  0.00  0.00    +0.000 C 
ENDBRANCH   3   7
BRANCH   4   9
ATOM      9  C   UNL     1      97.681 105.259  89.834  0.00  0.00    +0.000 C 
ATOM     10  C   UNL     1      98.746 106.008  89.049  0.00  0.00    +0.000 C 
ENDBRANCH   4   9
BRANCH   6  11
ATOM     11  O   UNL     1      97.955 106.860  94.508  0.00  0.00    +0.000 OA
ATOM     12  C   UNL     1      98.025 105.624  95.214  0.00  0.00    +0.000 C 
ENDBRANCH   6  11
BRANCH   1  13
ATOM     13  C   UNL     1      95.781 108.560  94.298  0.00  0.00    +0.000 C 
BRANCH  13  15
ATOM     14  C   UNL     1      95.710 110.971  95.050  0.00  0.00    +0.000 C 
ATOM     15  C   UNL     1      96.632 109.805  94.672  0.00  0.00    +0.000 C 
BRANCH  15  16
ATOM     16  N   UNL     1      97.535 109.607  95.814  0.00  0.00    +0.000 NA
ATOM     17  H   UNL     1      98.290 110.292  95.779  0.00  0.00    +0.000 HD
ATOM     18  H   UNL     1      97.053 109.786  96.691  0.00  0.00    +0.000 HD
ENDBRANCH  15  16
ENDBRANCH  13  15
ENDBRANCH   1  13
TORSDOF 6
ENDMDL
MODEL 5
REMARK VINA RESULT:    -5.561      2.222      5.627
REMARK INTER + INTRA:          -7.650
REMARK INTER:                  -7.387
REMARK INTRA:                  -0.263
REMARK UNBOUND:                -0.301
REMARK  Name = 
REMARK  10 active torsions:
REMARK  status: ('A' for Active; 'I' for Inactive)
REMARK    1  A    between atoms: C_1  and  C_2
REMARK    2  A    between atoms: C_2  and  N_3
REMARK    3  A    between atoms: C_2  and  C_4
REMARK    4  A    between atoms: C_4  and  C_5
REMARK    5  A    between atoms: C_7  and  O_8
REMARK    6  A    between atoms: O_8  and  C_9
REMARK    7  A    between atoms: C_10  and  C_11
REMARK    8  A    between atoms: C_11  and  C_12
REMARK    9  A    between atoms: C_14  and  O_15
REMARK   10  A    between atoms: O_15  and  C_16
REMARK                            x       y       z     vdW  Elec       q    Type
REMARK                         _______ _______ _______ _____ _____    ______ ____
ROOT
ATOM      1  C   UNL     1      97.191 107.843  93.506  0.00  0.00    +0.000 A 
ATOM      2  C   UNL     1      97.172 108.397  92.214  0.00  0.00    +0.000 A 
ATOM      3  C   UNL     1      97.399 107.616  91.071  0.00  0.00    +0.000 A 
ATOM      4  C   UNL     1      97.592 106.233  91.205  0.00  0.00    +0.000 A 
ATOM      5  C   UNL     1      97.517 105.659  92.484  0.00  0.00    +0.000 A 
ATOM      6  C   UNL     1      97.345 106.446  93.625  0.00  0.00    +0.000 A 
ENDROOT
BRANCH   3   7
ATOM      7  O   UNL     1      97.452 108.106  89.794  0.00  0.00    +0.000 OA
ATOM      8  C   UNL     1      98.611 108.849  89.428  0.00  0.00    +0.000 C 
ENDBRANCH   3   7
BRANCH   4   9
ATOM      9  C   UNL     1      97.886 105.335  90.023  0.00  0.00    +0.000 C 
ATOM     10  C   UNL     1      96.636 104.906  89.271  0.00  0.00    +0.000 C 
ENDBRANCH   4   9
BRANCH   6  11
ATOM     11  O   UNL     1      97.296 105.931  94.899  0.00  0.00    +0.000 OA
ATOM     12  C   UNL     1      98.513 105.404  95.422  0.00  0.00    +0.000 C 
ENDBRANCH   6  11
BRANCH   1  13
ATOM     13  C   UNL     1      97.062 108.685  94.769  0.00  0.00    +0.000 C 
BRANCH  13  15
ATOM     14  C   UNL     1      95.801 110.150  96.397  0.00  0.00    +0.000 C 
ATOM     15  C   UNL     1      95.663 109.045  95.342  0.00  0.00    +0.000 C 
BRANCH  15  16
ATOM     16  N   UNL     1      94.705 109.544  94.345  0.00  0.00    +0.000 NA
ATOM     17  H   UNL     1      94.812 110.553  94.241  0.00  0.00    +0.000 HD
ATOM     18  H   UNL     1      94.907 109.158  93.426  0.00  0.00    +0.000 HD
ENDBRANCH  15  16
ENDBRANCH  13  15
ENDBRANCH   1  13
TORSDOF 6
ENDMDL
MODEL 6
REMARK VINA RESULT:    -5.552      6.109      8.110
REMARK INTER + INTRA:          -7.638
REMARK INTER:                  -7.295
REMARK INTRA:                  -0.344
REMARK UNBOUND:                -0.301
REMARK  Name = 
REMARK  10 active torsions:
REMARK  status: ('A' for Active; 'I' for Inactive)
REMARK    1  A    between atoms: C_1  and  C_2
REMARK    2  A    between atoms: C_2  and  N_3
REMARK    3  A    between atoms: C_2  and  C_4
REMARK    4  A    between atoms: C_4  and  C_5
REMARK    5  A    between atoms: C_7  and  O_8
REMARK    6  A    between atoms: O_8  and  C_9
REMARK    7  A    between atoms: C_10  and  C_11
REMARK    8  A    between atoms: C_11  and  C_12
REMARK    9  A    between atoms: C_14  and  O_15
REMARK   10  A    between atoms: O_15  and  C_16
REMARK                            x       y       z     vdW  Elec       q    Type
REMARK                         _______ _______ _______ _____ _____    ______ ____
ROOT
ATOM      1  C   UNL     1      99.545 103.716  97.611  0.00  0.00    +0.000 A 
ATOM      2  C   UNL     1      99.750 102.861  98.708  0.00  0.00    +0.000 A 
ATOM      3  C   UNL     1      99.779 103.341 100.026  0.00  0.00    +0.000 A 
ATOM      4  C   UNL     1      99.540 104.702 100.272  0.00  0.00    +0.000 A 
ATOM      5  C   UNL     1      99.240 105.543  99.188  0.00  0.00    +0.000 A 
ATOM      6  C   UNL     1      99.265 105.073  97.873  0.00  0.00    +0.000 A 
ENDROOT
BRANCH   3   7
ATOM      7  O   UNL     1     100.032 102.570 101.128  0.00  0.00    +0.000 OA
ATOM      8  C   UNL     1      99.034 101.626 101.507  0.00  0.00    +0.000 C 
ENDBRANCH   3   7
BRANCH   4   9
ATOM      9  C   UNL     1      99.599 105.300 101.660  0.00  0.00    +0.000 C 
ATOM     10  C   UNL     1     100.971 105.850 102.017  0.00  0.00    +0.000 C 
ENDBRANCH   4   9
BRANCH   6  11
ATOM     11  O   UNL     1      99.008 105.867  96.780  0.00  0.00    +0.000 OA
ATOM     12  C   UNL     1     100.024 106.798  96.415  0.00  0.00    +0.000 C 
ENDBRANCH   6  11
BRANCH   1  13
ATOM     13  C   UNL     1      99.622 103.240  96.166  0.00  0.00    +0.000 C 
BRANCH  13  15
ATOM     14  C   UNL     1      98.649 101.844  94.298  0.00  0.00    +0.000 C 
ATOM     15  C   UNL     1      98.331 102.886  95.378  0.00  0.00    +0.000 C 
BRANCH  15  16
ATOM     16  N   UNL     1      97.253 102.315  96.198  0.00  0.00    +0.000 NA
ATOM     17  H   UNL     1      96.690 103.065  96.598  0.00  0.00    +0.000 HD
ATOM     18  H   UNL     1      96.610 101.776  95.623  0.00  0.00    +0.000 HD
ENDBRANCH  15  16
ENDBRANCH  13  15
ENDBRANCH   1  13
TORSDOF 6
ENDMDL
MODEL 7
REMARK VINA RESULT:    -5.502      6.721      9.095
REMARK INTER + INTRA:          -7.572
REMARK INTER:                  -6.992
REMARK INTRA:                  -0.580
REMARK UNBOUND:                -0.301
REMARK  Name = 
REMARK  10 active torsions:
REMARK  status: ('A' for Active; 'I' for Inactive)
REMARK    1  A    between atoms: C_1  and  C_2
REMARK    2  A    between atoms: C_2  and  N_3
REMARK    3  A    between atoms: C_2  and  C_4
REMARK    4  A    between atoms: C_4  and  C_5
REMARK    5  A    between atoms: C_7  and  O_8
REMARK    6  A    between atoms: O_8  and  C_9
REMARK    7  A    between atoms: C_10  and  C_11
REMARK    8  A    between atoms: C_11  and  C_12
REMARK    9  A    between atoms: C_14  and  O_15
REMARK   10  A    between atoms: O_15  and  C_16
REMARK                            x       y       z     vdW  Elec       q    Type
REMARK                         _______ _______ _______ _____ _____    ______ ____
ROOT
ATOM      1  C   UNL     1      94.735 115.984  94.532  0.00  0.00    +0.000 A 
ATOM      2  C   UNL     1      96.010 115.430  94.324  0.00  0.00    +0.000 A 
ATOM      3  C   UNL     1      96.264 114.064  94.519  0.00  0.00    +0.000 A 
ATOM      4  C   UNL     1      95.211 113.208  94.877  0.00  0.00    +0.000 A 
ATOM      5  C   UNL     1      93.917 113.740  94.994  0.00  0.00    +0.000 A 
ATOM      6  C   UNL     1      93.676 115.108  94.851  0.00  0.00    +0.000 A 
ENDROOT
BRANCH   3   7
ATOM      7  O   UNL     1      97.494 113.476  94.390  0.00  0.00    +0.000 OA
ATOM      8  C   UNL     1      98.636 114.310  94.565  0.00  0.00    +0.000 C 
ENDBRANCH   3   7
BRANCH   4   9
ATOM      9  C   UNL     1      95.418 111.735  95.149  0.00  0.00    +0.000 C 
ATOM     10  C   UNL     1      94.117 110.976  95.358  0.00  0.00    +0.000 C 
ENDBRANCH   4   9
BRANCH   6  11
ATOM     11  O   UNL     1      92.431 115.676  94.987  0.00  0.00    +0.000 OA
ATOM     12  C   UNL     1      91.863 115.664  96.294  0.00  0.00    +0.000 C 
ENDBRANCH   6  11
BRANCH   1  13
ATOM     13  C   UNL     1      94.458 117.479  94.437  0.00  0.00    +0.000 C 
BRANCH  13  15
ATOM     14  C   UNL     1      94.243 117.298  91.926  0.00  0.00    +0.000 C 
ATOM     15  C   UNL     1      93.799 118.084  93.167  0.00  0.00    +0.000 C 
BRANCH  15  16
ATOM     16  N   UNL     1      92.330 118.056  93.169  0.00  0.00    +0.000 NA
ATOM     17  H   UNL     1      91.978 118.435  92.290  0.00  0.00    +0.000 HD
ATOM     18  H   UNL     1      91.987 117.100  93.204  0.00  0.00    +0.000 HD
ENDBRANCH  15  16
ENDBRANCH  13  15
ENDBRANCH   1  13
TORSDOF 6
ENDMDL
MODEL 8
REMARK VINA RESULT:    -5.484      3.924      6.475
REMARK INTER + INTRA:          -7.549
REMARK INTER:                  -7.185
REMARK INTRA:                  -0.364
REMARK UNBOUND:                -0.301
REMARK  Name = 
REMARK  10 active torsions:
REMARK  status: ('A' for Active; 'I' for Inactive)
REMARK    1  A    between atoms: C_1  and  C_2
REMARK    2  A    between atoms: C_2  and  N_3
REMARK    3  A    between atoms: C_2  and  C_4
REMARK    4  A    between atoms: C_4  and  C_5
REMARK    5  A    between atoms: C_7  and  O_8
REMARK    6  A    between atoms: O_8  and  C_9
REMARK    7  A    between atoms: C_10  and  C_11
REMARK    8  A    between atoms: C_11  and  C_12
REMARK    9  A    between atoms: C_14  and  O_15
REMARK   10  A    between atoms: O_15  and  C_16
REMARK                            x       y       z     vdW  Elec       q    Type
REMARK                         _______ _______ _______ _____ _____    ______ ____
ROOT
ATOM      1  C   UNL     1      98.290 105.676  95.479  0.00  0.00    +0.000 A 
ATOM      2  C   UNL     1      98.175 104.317  95.139  0.00  0.00    +0.000 A 
ATOM      3  C   UNL     1      98.534 103.297  96.033  0.00  0.00    +0.000 A 
ATOM      4  C   UNL     1      98.967 103.630  97.325  0.00  0.00    +0.000 A 
ATOM      5  C   UNL     1      98.994 104.983  97.702  0.00  0.00    +0.000 A 
ATOM      6  C   UNL     1      98.687 105.998  96.794  0.00  0.00    +0.000 A 
ENDROOT
BRANCH   3   7
ATOM      7  O   UNL     1      98.500 101.960  95.741  0.00  0.00    +0.000 OA
ATOM      8  C   UNL     1      98.595 101.590  94.368  0.00  0.00    +0.000 C 
ENDBRANCH   3   7
BRANCH   4   9
ATOM      9  C   UNL     1      99.414 102.589  98.327  0.00  0.00    +0.000 C 
ATOM     10  C   UNL     1      99.757 103.174  99.688  0.00  0.00    +0.000 C 
ENDBRANCH   4   9
BRANCH   6  11
ATOM     11  O   UNL     1      98.730 107.335  97.110  0.00  0.00    +0.000 OA
ATOM     12  C   UNL     1      98.045 107.733  98.295  0.00  0.00    +0.000 C 
ENDBRANCH   6  11
BRANCH   1  13
ATOM     13  C   UNL     1      98.016 106.802  94.490  0.00  0.00    +0.000 C 
BRANCH  13  15
ATOM     14  C   UNL     1      96.810 108.986  94.090  0.00  0.00    +0.000 C 
ATOM     15  C   UNL     1      96.632 107.506  94.456  0.00  0.00    +0.000 C 
BRANCH  15  16
ATOM     16  N   UNL     1      95.688 106.950  93.475  0.00  0.00    +0.000 NA
ATOM     17  H   UNL     1      94.783 107.409  93.572  0.00  0.00    +0.000 HD
ATOM     18  H   UNL     1      95.991 107.155  92.527  0.00  0.00    +0.000 HD
ENDBRANCH  15  16
ENDBRANCH  13  15
ENDBRANCH   1  13
TORSDOF 6
ENDMDL
MODEL 9
REMARK VINA RESULT:    -5.475      6.639      8.383
REMARK INTER + INTRA:          -7.536
REMARK INTER:                  -6.988
REMARK INTRA:                  -0.548
REMARK UNBOUND:                -0.301
REMARK  Name = 
REMARK  10 active torsions:
REMARK  status: ('A' for Active; 'I' for Inactive)
REMARK    1  A    between atoms: C_1  and  C_2
REMARK    2  A    between atoms: C_2  and  N_3
REMARK    3  A    between atoms: C_2  and  C_4
REMARK    4  A    between atoms: C_4  and  C_5
REMARK    5  A    between atoms: C_7  and  O_8
REMARK    6  A    between atoms: O_8  and  C_9
REMARK    7  A    between atoms: C_10  and  C_11
REMARK    8  A    between atoms: C_11  and  C_12
REMARK    9  A    between atoms: C_14  and  O_15
REMARK   10  A    between atoms: O_15  and  C_16
REMARK                            x       y       z     vdW  Elec       q    Type
REMARK                         _______ _______ _______ _____ _____    ______ ____
ROOT
ATOM      1  C   UNL     1     100.359 103.951  97.370  0.00  0.00    +0.000 A 
ATOM      2  C   UNL     1     100.733 105.304  97.286  0.00  0.00    +0.000 A 
ATOM      3  C   UNL     1     100.908 106.097  98.430  0.00  0.00    +0.000 A 
ATOM      4  C   UNL     1     100.763 105.519  99.700  0.00  0.00    +0.000 A 
ATOM      5  C   UNL     1     100.482 104.147  99.792  0.00  0.00    +0.000 A 
ATOM      6  C   UNL     1     100.256 103.372  98.652  0.00  0.00    +0.000 A 
ENDROOT
BRANCH   3   7
ATOM      7  O   UNL     1     101.214 107.431  98.411  0.00  0.00    +0.000 OA
ATOM      8  C   UNL     1     100.285 108.304  97.776  0.00  0.00    +0.000 C 
ENDBRANCH   3   7
BRANCH   4   9
ATOM      9  C   UNL     1     100.892 106.320 100.977  0.00  0.00    +0.000 C 
ATOM     10  C   UNL     1     101.119 105.455 102.207  0.00  0.00    +0.000 C 
ENDBRANCH   4   9
BRANCH   6  11
ATOM     11  O   UNL     1      99.949 102.032  98.695  0.00  0.00    +0.000 OA
ATOM     12  C   UNL     1      99.835 101.446  99.989  0.00  0.00    +0.000 C 
ENDBRANCH   6  11
BRANCH   1  13
ATOM     13  C   UNL     1     100.052 103.100  96.144  0.00  0.00    +0.000 C 
BRANCH  13  15
ATOM     14  C   UNL     1      98.582 102.099  94.350  0.00  0.00    +0.000 C 
ATOM     15  C   UNL     1      98.603 102.997  95.594  0.00  0.00    +0.000 C 
BRANCH  15  16
ATOM     16  N   UNL     1      97.632 102.419  96.535  0.00  0.00    +0.000 NA
ATOM     17  H   UNL     1      97.660 101.402  96.477  0.00  0.00    +0.000 HD
ATOM     18  H   UNL     1      97.886 102.639  97.495  0.00  0.00    +0.000 HD
ENDBRANCH  15  16
ENDBRANCH  13  15
ENDBRANCH   1  13
TORSDOF 6
ENDMDL
