MODEL 1
REMARK VINA RESULT:    -5.878      0.000      0.000
REMARK INTER + INTRA:          -7.785
REMARK INTER:                  -7.425
REMARK INTRA:                  -0.361
REMARK UNBOUND:                -0.361
REMARK  Name = 
REMARK  9 active torsions:
REMARK  status: ('A' for Active; 'I' for Inactive)
REMARK    1  A    between atoms: C_1  and  C_2
REMARK    2  A    between atoms: C_2  and  N_3
REMARK    3  A    between atoms: C_2  and  C_4
REMARK    4  A    between atoms: C_4  and  C_5
REMARK    5  A    between atoms: C_7  and  O_8
REMARK    6  A    between atoms: O_8  and  C_9
REMARK    7  A    between atoms: C_10  and  C_11
REMARK    8  A    between atoms: C_13  and  O_14
REMARK    9  A    between atoms: O_14  and  C_15
REMARK                            x       y       z     vdW  Elec       q    Type
REMARK                         _______ _______ _______ _____ _____    ______ ____
ROOT
ATOM      1  C   UNL     1      97.106 106.187  91.088  0.00  0.00    +0.000 A 
ATOM      2  C   UNL     1      97.732 106.415  92.336  0.00  0.00    +0.000 A 
ATOM      3  C   UNL     1      97.201 107.284  93.297  0.00  0.00    +0.000 A 
ATOM      4  C   UNL     1      95.990 107.928  93.028  0.00  0.00    +0.000 A 
ATOM      5  C   UNL     1      95.348 108.878  94.006  0.00  0.00    +0.000 C 
ATOM      6  C   UNL     1      95.347 107.684  91.806  0.00  0.00    +0.000 A 
ATOM      7  C   UNL     1      95.888 106.829  90.829  0.00  0.00    +0.000 A 
ENDROOT
BRANCH   3   8
ATOM      8  O   UNL     1      97.804 107.577  94.491  0.00  0.00    +0.000 OA
ATOM      9  C   UNL     1      98.202 106.489  95.315  0.00  0.00    +0.000 C 
ENDBRANCH   3   8
BRANCH   7  10
ATOM     10  O   UNL     1      95.163 106.834  89.670  0.00  0.00    +0.000 OA
ATOM     11  C   UNL     1      94.265 105.761  89.433  0.00  0.00    +0.000 C 
ENDBRANCH   7  10
BRANCH   1  12
ATOM     12  C   UNL     1      97.868 105.313  90.116  0.00  0.00    +0.000 C 
BRANCH  12  14
ATOM     13  C   UNL     1      99.589 105.951  88.336  0.00  0.00    +0.000 C 
ATOM     14  C   UNL     1      98.105 105.946  88.726  0.00  0.00    +0.000 C 
BRANCH  14  15
ATOM     15  N   UNL     1      97.337 105.202  87.713  0.00  0.00    +0.000 NA
ATOM     16  H   UNL     1      97.149 105.787  86.900  0.00  0.00    +0.000 HD
ATOM     17  H   UNL     1      96.428 104.932  88.084  0.00  0.00    +0.000 HD
ENDBRANCH  14  15
ENDBRANCH  12  14
ENDBRANCH   1  12
TORSDOF 5
ENDMDL
MODEL 2
REMARK VINA RESULT:    -5.597      1.787      2.250
REMARK INTER + INTRA:          -7.431
REMARK INTER:                  -7.184
REMARK INTRA:                  -0.247
REMARK UNBOUND:                -0.361
REMARK  Name = 
REMARK  9 active torsions:
REMARK  status: ('A' for Active; 'I' for Inactive)
REMARK    1  A    between atoms: C_1  and  C_2
REMARK    2  A    between atoms: C_2  and  N_3
REMARK    3  A    between atoms: C_2  and  C_4
REMARK    4  A    between atoms: C_4  and  C_5
REMARK    5  A    between atoms: C_7  and  O_8
REMARK    6  A    between atoms: O_8  and  C_9
REMARK    7  A    between atoms: C_10  and  C_11
REMARK    8  A    between atoms: C_13  and  O_14
REMARK    9  A    between atoms: O_14  and  C_15
REMARK                            x       y       z     vdW  Elec       q    Type
REMARK                         _______ _______ _______ _____ _____    ______ ____
ROOT
ATOM      1  C   UNL     1      97.393 106.387  91.894  0.00  0.00    +0.000 A 
ATOM      2  C   UNL     1      97.506 106.029  93.258  0.00  0.00    +0.000 A 
ATOM      3  C   UNL     1      97.451 106.973  94.291  0.00  0.00    +0.000 A 
ATOM      4  C   UNL     1      97.247 108.317  93.967  0.00  0.00    +0.000 A 
ATOM      5  C   UNL     1      97.174 109.397  95.015  0.00  0.00    +0.000 C 
ATOM      6  C   UNL     1      97.102 108.676  92.619  0.00  0.00    +0.000 A 
ATOM      7  C   UNL     1      97.178 107.734  91.576  0.00  0.00    +0.000 A 
ENDROOT
BRANCH   3   8
ATOM      8  O   UNL     1      97.614 106.676  95.617  0.00  0.00    +0.000 OA
ATOM      9  C   UNL     1      96.651 105.828  96.229  0.00  0.00    +0.000 C 
ENDBRANCH   3   8
BRANCH   7  10
ATOM     10  O   UNL     1      97.137 108.317  90.341  0.00  0.00    +0.000 OA
ATOM     11  C   UNL     1      98.353 108.784  89.777  0.00  0.00    +0.000 C 
ENDBRANCH   7  10
BRANCH   1  12
ATOM     12  C   UNL     1      97.590 105.265  90.897  0.00  0.00    +0.000 C 
BRANCH  12  14
ATOM     13  C   UNL     1      97.230 105.177  88.368  0.00  0.00    +0.000 C 
ATOM     14  C   UNL     1      96.560 105.234  89.746  0.00  0.00    +0.000 C 
BRANCH  14  15
ATOM     15  N   UNL     1      95.680 104.064  89.910  0.00  0.00    +0.000 NA
ATOM     16  H   UNL     1      95.821 103.396  89.153  0.00  0.00    +0.000 HD
ATOM     17  H   UNL     1      94.703 104.344  89.863  0.00  0.00    +0.000 HD
ENDBRANCH  14  15
ENDBRANCH  12  14
ENDBRANCH   1  12
TORSDOF 5
ENDMDL
MODEL 3
REMARK VINA RESULT:    -5.502      5.317      7.788
REMARK INTER + INTRA:          -7.310
REMARK INTER:                  -6.856
REMARK INTRA:                  -0.454
REMARK UNBOUND:                -0.361
REMARK  Name = 
REMARK  9 active torsions:
REMARK  status: ('A' for Active; 'I' for Inactive)
REMARK    1  A    between atoms: C_1  and  C_2
REMARK    2  A    between atoms: C_2  and  N_3
REMARK    3  A    between atoms: C_2  and  C_4
REMARK    4  A    between atoms: C_4  and  C_5
REMARK    5  A    between atoms: C_7  and  O_8
REMARK    6  A    between atoms: O_8  and  C_9
REMARK    7  A    between atoms: C_10  and  C_11
REMARK    8  A    between atoms: C_13  and  O_14
REMARK    9  A    between atoms: O_14  and  C_15
REMARK                            x       y       z     vdW  Elec       q    Type
REMARK                         _______ _______ _______ _____ _____    ______ ____
ROOT
ATOM      1  C   UNL     1      95.282 112.024  95.794  0.00  0.00    +0.000 A 
ATOM      2  C   UNL     1      95.499 112.370  97.148  0.00  0.00    +0.000 A 
ATOM      3  C   UNL     1      95.336 111.453  98.195  0.00  0.00    +0.000 A 
ATOM      4  C   UNL     1      94.975 110.139  97.889  0.00  0.00    +0.000 A 
ATOM      5  C   UNL     1      94.779 109.089  98.953  0.00  0.00    +0.000 C 
ATOM      6  C   UNL     1      94.789 109.779  96.547  0.00  0.00    +0.000 A 
ATOM      7  C   UNL     1      94.930 110.701  95.494  0.00  0.00    +0.000 A 
ENDROOT
BRANCH   3   8
ATOM      8  O   UNL     1      95.479 111.762  99.520  0.00  0.00    +0.000 OA
ATOM      9  C   UNL     1      96.796 111.970 100.014  0.00  0.00    +0.000 C 
ENDBRANCH   3   8
BRANCH   7  10
ATOM     10  O   UNL     1      94.581 110.171  94.284  0.00  0.00    +0.000 OA
ATOM     11  C   UNL     1      95.228 108.981  93.859  0.00  0.00    +0.000 C 
ENDBRANCH   7  10
BRANCH   1  12
ATOM     12  C   UNL     1      95.386 113.157  94.797  0.00  0.00    +0.000 C 
BRANCH  12  14
ATOM     13  C   UNL     1      94.221 115.258  93.921  0.00  0.00    +0.000 C 
ATOM     14  C   UNL     1      94.040 113.823  94.432  0.00  0.00    +0.000 C 
BRANCH  14  15
ATOM     15  N   UNL     1      93.361 113.020  93.401  0.00  0.00    +0.000 NA
ATOM     16  H   UNL     1      93.145 112.088  93.752  0.00  0.00    +0.000 HD
ATOM     17  H   UNL     1      93.971 112.884  92.597  0.00  0.00    +0.000 HD
ENDBRANCH  14  15
ENDBRANCH  12  14
ENDBRANCH   1  12
TORSDOF 5
ENDMDL
MODEL 4
REMARK VINA RESULT:    -5.470      6.746      9.472
REMARK INTER + INTRA:          -7.269
REMARK INTER:                  -6.970
REMARK INTRA:                  -0.299
REMARK UNBOUND:                -0.361
REMARK  Name = 
REMARK  9 active torsions:
REMARK  status: ('A' for Active; 'I' for Inactive)
REMARK    1  A    between atoms: C_1  and  C_2
REMARK    2  A    between atoms: C_2  and  N_3
REMARK    3  A    between atoms: C_2  and  C_4
REMARK    4  A    between atoms: C_4  and  C_5
REMARK    5  A    between atoms: C_7  and  O_8
REMARK    6  A    between atoms: O_8  and  C_9
REMARK    7  A    between atoms: C_10  and  C_11
REMARK    8  A    between atoms: C_13  and  O_14
REMARK    9  A    between atoms: O_14  and  C_15
REMARK                            x       y       z     vdW  Elec       q    Type
REMARK                         _______ _______ _______ _____ _____    ______ ____
ROOT
ATOM      1  C   UNL     1     100.343 103.913  98.463  0.00  0.00    +0.000 A 
ATOM      2  C   UNL     1      99.469 103.437  99.468  0.00  0.00    +0.000 A 
ATOM      3  C   UNL     1      99.642 103.744 100.824  0.00  0.00    +0.000 A 
ATOM      4  C   UNL     1     100.700 104.577 101.196  0.00  0.00    +0.000 A 
ATOM      5  C   UNL     1     100.958 104.958 102.631  0.00  0.00    +0.000 C 
ATOM      6  C   UNL     1     101.552 105.079 100.202  0.00  0.00    +0.000 A 
ATOM      7  C   UNL     1     101.395 104.757  98.842  0.00  0.00    +0.000 A 
ENDROOT
BRANCH   3   8
ATOM      8  O   UNL     1      98.855 103.257 101.832  0.00  0.00    +0.000 OA
ATOM      9  C   UNL     1      99.008 101.889 102.189  0.00  0.00    +0.000 C 
ENDBRANCH   3   8
BRANCH   7  10
ATOM     10  O   UNL     1     102.407 105.250  98.067  0.00  0.00    +0.000 OA
ATOM     11  C   UNL     1     102.979 106.499  98.425  0.00  0.00    +0.000 C 
ENDBRANCH   7  10
BRANCH   1  12
ATOM     12  C   UNL     1     100.087 103.395  97.064  0.00  0.00    +0.000 C 
BRANCH  12  14
ATOM     13  C   UNL     1      97.815 104.218  96.228  0.00  0.00    +0.000 C 
ATOM     14  C   UNL     1      98.615 103.027  96.770  0.00  0.00    +0.000 C 
BRANCH  14  15
ATOM     15  N   UNL     1      98.573 101.925  95.793  0.00  0.00    +0.000 NA
ATOM     16  H   UNL     1      99.498 101.513  95.673  0.00  0.00    +0.000 HD
ATOM     17  H   UNL     1      98.297 102.271  94.877  0.00  0.00    +0.000 HD
ENDBRANCH  14  15
ENDBRANCH  12  14
ENDBRANCH   1  12
TORSDOF 5
ENDMDL
MODEL 5
REMARK VINA RESULT:    -5.431      2.589      5.159
REMARK INTER + INTRA:          -7.220
REMARK INTER:                  -6.784
REMARK INTRA:                  -0.436
REMARK UNBOUND:                -0.361
REMARK  Name = 
REMARK  9 active torsions:
REMARK  status: ('A' for Active; 'I' for Inactive)
REMARK    1  A    between atoms: C_1  and  C_2
REMARK    2  A    between atoms: C_2  and  N_3
REMARK    3  A    between atoms: C_2  and  C_4
REMARK    4  A    between atoms: C_4  and  C_5
REMARK    5  A    between atoms: C_7  and  O_8
REMARK    6  A    between atoms: O_8  and  C_9
REMARK    7  A    between atoms: C_10  and  C_11
REMARK    8  A    between atoms: C_13  and  O_14
REMARK    9  A    between atoms: O_14  and  C_15
REMARK                            x       y       z     vdW  Elec       q    Type
REMARK                         _______ _______ _______ _____ _____    ______ ____
ROOT
ATOM      1  C   UNL     1      97.550 106.562  93.568  0.00  0.00    +0.000 A 
ATOM      2  C   UNL     1      97.607 105.830  92.360  0.00  0.00    +0.000 A 
ATOM      3  C   UNL     1      97.023 106.290  91.172  0.00  0.00    +0.000 A 
ATOM      4  C   UNL     1      96.386 107.533  91.172  0.00  0.00    +0.000 A 
ATOM      5  C   UNL     1      95.732 108.103  89.940  0.00  0.00    +0.000 C 
ATOM      6  C   UNL     1      96.352 108.279  92.359  0.00  0.00    +0.000 A 
ATOM      7  C   UNL     1      96.918 107.812  93.559  0.00  0.00    +0.000 A 
ENDROOT
BRANCH   3   8
ATOM      8  O   UNL     1      97.005 105.587  89.998  0.00  0.00    +0.000 OA
ATOM      9  C   UNL     1      98.229 105.457  89.286  0.00  0.00    +0.000 C 
ENDBRANCH   3   8
BRANCH   7  10
ATOM     10  O   UNL     1      96.661 108.640  94.615  0.00  0.00    +0.000 OA
ATOM     11  C   UNL     1      95.435 109.356  94.626  0.00  0.00    +0.000 C 
ENDBRANCH   7  10
BRANCH   1  12
ATOM     12  C   UNL     1      98.127 105.873  94.787  0.00  0.00    +0.000 C 
BRANCH  12  14
ATOM     13  C   UNL     1      97.803 104.141  96.640  0.00  0.00    +0.000 C 
ATOM     14  C   UNL     1      97.116 105.021  95.587  0.00  0.00    +0.000 C 
BRANCH  14  15
ATOM     15  N   UNL     1      96.145 105.908  96.250  0.00  0.00    +0.000 NA
ATOM     16  H   UNL     1      95.777 106.596  95.593  0.00  0.00    +0.000 HD
ATOM     17  H   UNL     1      96.597 106.439  96.991  0.00  0.00    +0.000 HD
ENDBRANCH  14  15
ENDBRANCH  12  14
ENDBRANCH   1  12
TORSDOF 5
ENDMDL
MODEL 6
REMARK VINA RESULT:    -5.390      2.864      5.806
REMARK INTER + INTRA:          -7.168
REMARK INTER:                  -6.857
REMARK INTRA:                  -0.312
REMARK UNBOUND:                -0.361
REMARK  Name = 
REMARK  9 active torsions:
REMARK  status: ('A' for Active; 'I' for Inactive)
REMARK    1  A    between atoms: C_1  and  C_2
REMARK    2  A    between atoms: C_2  and  N_3
REMARK    3  A    between atoms: C_2  and  C_4
REMARK    4  A    between atoms: C_4  and  C_5
REMARK    5  A    between atoms: C_7  and  O_8
REMARK    6  A    between atoms: O_8  and  C_9
REMARK    7  A    between atoms: C_10  and  C_11
REMARK    8  A    between atoms: C_13  and  O_14
REMARK    9  A    between atoms: O_14  and  C_15
REMARK                            x       y       z     vdW  Elec       q    Type
REMARK                         _______ _______ _______ _____ _____    ______ ____
ROOT
ATOM      1  C   UNL     1      97.102 108.137  93.614  0.00  0.00    +0.000 A 
ATOM      2  C   UNL     1      97.129 108.484  92.243  0.00  0.00    +0.000 A 
ATOM      3  C   UNL     1      97.374 107.544  91.233  0.00  0.00    +0.000 A 
ATOM      4  C   UNL     1      97.571 106.208  91.589  0.00  0.00    +0.000 A 
ATOM      5  C   UNL     1      97.840 105.133  90.568  0.00  0.00    +0.000 C 
ATOM      6  C   UNL     1      97.515 105.850  92.944  0.00  0.00    +0.000 A 
ATOM      7  C   UNL     1      97.290 106.793  93.963  0.00  0.00    +0.000 A 
ENDROOT
BRANCH   3   8
ATOM      8  O   UNL     1      97.466 107.848  89.902  0.00  0.00    +0.000 OA
ATOM      9  C   UNL     1      98.555 108.660  89.482  0.00  0.00    +0.000 C 
ENDBRANCH   3   8
BRANCH   7  10
ATOM     10  O   UNL     1      97.401 106.250  95.212  0.00  0.00    +0.000 OA
ATOM     11  C   UNL     1      98.622 105.616  95.564  0.00  0.00    +0.000 C 
ENDBRANCH   7  10
BRANCH   1  12
ATOM     12  C   UNL     1      96.941 109.287  94.584  0.00  0.00    +0.000 C 
BRANCH  12  14
ATOM     13  C   UNL     1      95.607 110.249  96.541  0.00  0.00    +0.000 C 
ATOM     14  C   UNL     1      95.578 109.334  95.311  0.00  0.00    +0.000 C 
BRANCH  14  15
ATOM     15  N   UNL     1      94.543 109.806  94.375  0.00  0.00    +0.000 NA
ATOM     16  H   UNL     1      94.641 110.806  94.201  0.00  0.00    +0.000 HD
ATOM     17  H   UNL     1      93.616 109.679  94.777  0.00  0.00    +0.000 HD
ENDBRANCH  14  15
ENDBRANCH  12  14
ENDBRANCH   1  12
TORSDOF 5
ENDMDL
MODEL 7
REMARK VINA RESULT:    -5.327      6.854      8.550
REMARK INTER + INTRA:          -7.089
REMARK INTER:                  -6.754
REMARK INTRA:                  -0.335
REMARK UNBOUND:                -0.361
REMARK  Name = 
REMARK  9 active torsions:
REMARK  status: ('A' for Active; 'I' for Inactive)
REMARK    1  A    between atoms: C_1  and  C_2
REMARK    2  A    between atoms: C_2  and  N_3
REMARK    3  A    between atoms: C_2  and  C_4
REMARK    4  A    between atoms: C_4  and  C_5
REMARK    5  A    between atoms: C_7  and  O_8
REMARK    6  A    between atoms: O_8  and  C_9
REMARK    7  A    between atoms: C_10  and  C_11
REMARK    8  A    between atoms: C_13  and  O_14
REMARK    9  A    between atoms: O_14  and  C_15
REMARK                            x       y       z     vdW  Elec       q    Type
REMARK                         _______ _______ _______ _____ _____    ______ ____
ROOT
ATOM      1  C   UNL     1      94.871 113.259  94.799  0.00  0.00    +0.000 A 
ATOM      2  C   UNL     1      96.270 113.057  94.873  0.00  0.00    +0.000 A 
ATOM      3  C   UNL     1      97.192 114.077  94.607  0.00  0.00    +0.000 A 
ATOM      4  C   UNL     1      96.716 115.350  94.286  0.00  0.00    +0.000 A 
ATOM      5  C   UNL     1      97.638 116.503  93.986  0.00  0.00    +0.000 C 
ATOM      6  C   UNL     1      95.331 115.566  94.241  0.00  0.00    +0.000 A 
ATOM      7  C   UNL     1      94.400 114.540  94.487  0.00  0.00    +0.000 A 
ENDROOT
BRANCH   3   8
ATOM      8  O   UNL     1      98.551 113.908  94.610  0.00  0.00    +0.000 OA
ATOM      9  C   UNL     1      99.157 113.441  95.809  0.00  0.00    +0.000 C 
ENDBRANCH   3   8
BRANCH   7  10
ATOM     10  O   UNL     1      93.112 114.939  94.267  0.00  0.00    +0.000 OA
ATOM     11  C   UNL     1      92.846 116.331  94.169  0.00  0.00    +0.000 C 
ENDBRANCH   7  10
BRANCH   1  12
ATOM     12  C   UNL     1      94.014 112.027  95.000  0.00  0.00    +0.000 C 
BRANCH  12  14
ATOM     13  C   UNL     1      94.438 110.151  96.684  0.00  0.00    +0.000 C 
ATOM     14  C   UNL     1      94.802 110.735  95.313  0.00  0.00    +0.000 C 
BRANCH  14  15
ATOM     15  N   UNL     1      94.530 109.733  94.267  0.00  0.00    +0.000 NA
ATOM     16  H   UNL     1      95.112 109.900  93.447  0.00  0.00    +0.000 HD
ATOM     17  H   UNL     1      93.566 109.803  93.950  0.00  0.00    +0.000 HD
ENDBRANCH  14  15
ENDBRANCH  12  14
ENDBRANCH   1  12
TORSDOF 5
ENDMDL
MODEL 8
REMARK VINA RESULT:    -5.310      4.354      6.615
REMARK INTER + INTRA:          -7.067
REMARK INTER:                  -6.760
REMARK INTRA:                  -0.307
REMARK UNBOUND:                -0.361
REMARK  Name = 
REMARK  9 active torsions:
REMARK  status: ('A' for Active; 'I' for Inactive)
REMARK    1  A    between atoms: C_1  and  C_2
REMARK    2  A    between atoms: C_2  and  N_3
REMARK    3  A    between atoms: C_2  and  C_4
REMARK    4  A    between atoms: C_4  and  C_5
REMARK    5  A    between atoms: C_7  and  O_8
REMARK    6  A    between atoms: O_8  and  C_9
REMARK    7  A    between atoms: C_10  and  C_11
REMARK    8  A    between atoms: C_13  and  O_14
REMARK    9  A    between atoms: O_14  and  C_15
REMARK                            x       y       z     vdW  Elec       q    Type
REMARK                         _______ _______ _______ _____ _____    ______ ____
ROOT
ATOM      1  C   UNL     1      98.260 105.641  95.362  0.00  0.00    +0.000 A 
ATOM      2  C   UNL     1      98.208 104.273  95.006  0.00  0.00    +0.000 A 
ATOM      3  C   UNL     1      98.553 103.250  95.898  0.00  0.00    +0.000 A 
ATOM      4  C   UNL     1      98.934 103.589  97.198  0.00  0.00    +0.000 A 
ATOM      5  C   UNL     1      99.320 102.552  98.221  0.00  0.00    +0.000 C 
ATOM      6  C   UNL     1      98.958 104.941  97.569  0.00  0.00    +0.000 A 
ATOM      7  C   UNL     1      98.634 105.974  96.670  0.00  0.00    +0.000 A 
ENDROOT
BRANCH   3   8
ATOM      8  O   UNL     1      98.572 101.919  95.575  0.00  0.00    +0.000 OA
ATOM      9  C   UNL     1      98.624 101.573  94.197  0.00  0.00    +0.000 C 
ENDBRANCH   3   8
BRANCH   7  10
ATOM     10  O   UNL     1      98.845 107.215  97.202  0.00  0.00    +0.000 OA
ATOM     11  C   UNL     1      99.187 107.308  98.577  0.00  0.00    +0.000 C 
ENDBRANCH   7  10
BRANCH   1  12
ATOM     12  C   UNL     1      97.970 106.626  94.249  0.00  0.00    +0.000 C 
BRANCH  12  14
ATOM     13  C   UNL     1      96.859 108.926  94.135  0.00  0.00    +0.000 C 
ATOM     14  C   UNL     1      96.663 107.432  94.424  0.00  0.00    +0.000 C 
BRANCH  14  15
ATOM     15  N   UNL     1      95.631 106.891  93.523  0.00  0.00    +0.000 NA
ATOM     16  H   UNL     1      94.854 107.544  93.430  0.00  0.00    +0.000 HD
ATOM     17  H   UNL     1      95.238 106.034  93.906  0.00  0.00    +0.000 HD
ENDBRANCH  14  15
ENDBRANCH  12  14
ENDBRANCH   1  12
TORSDOF 5
ENDMDL
MODEL 9
REMARK VINA RESULT:    -5.224      7.607     10.621
REMARK INTER + INTRA:          -6.959
REMARK INTER:                  -6.468
REMARK INTRA:                  -0.491
REMARK UNBOUND:                -0.361
REMARK  Name = 
REMARK  9 active torsions:
REMARK  status: ('A' for Active; 'I' for Inactive)
REMARK    1  A    between atoms: C_1  and  C_2
REMARK    2  A    between atoms: C_2  and  N_3
REMARK    3  A    between atoms: C_2  and  C_4
REMARK    4  A    between atoms: C_4  and  C_5
REMARK    5  A    between atoms: C_7  and  O_8
REMARK    6  A    between atoms: O_8  and  C_9
REMARK    7  A    between atoms: C_10  and  C_11
REMARK    8  A    between atoms: C_13  and  O_14
REMARK    9  A    between atoms: O_14  and  C_15
REMARK                            x       y       z     vdW  Elec       q    Type
REMARK                         _______ _______ _______ _____ _____    ______ ____
ROOT
ATOM      1  C   UNL     1      99.487 104.641 100.447  0.00  0.00    +0.000 A 
ATOM      2  C   UNL     1      99.294 105.556  99.386  0.00  0.00    +0.000 A 
ATOM      3  C   UNL     1      99.326 105.166  98.041  0.00  0.00    +0.000 A 
ATOM      4  C   UNL     1      99.525 103.817  97.735  0.00  0.00    +0.000 A 
ATOM      5  C   UNL     1      99.572 103.311  96.316  0.00  0.00    +0.000 C 
ATOM      6  C   UNL     1      99.685 102.899  98.782  0.00  0.00    +0.000 A 
ATOM      7  C   UNL     1      99.676 103.289 100.134  0.00  0.00    +0.000 A 
ENDROOT
BRANCH   3   8
ATOM      8  O   UNL     1      99.203 106.027  96.984  0.00  0.00    +0.000 OA
ATOM      9  C   UNL     1      99.982 107.217  97.006  0.00  0.00    +0.000 C 
ENDBRANCH   3   8
BRANCH   7  10
ATOM     10  O   UNL     1      99.975 102.257 100.978  0.00  0.00    +0.000 OA
ATOM     11  C   UNL     1      98.931 101.714 101.772  0.00  0.00    +0.000 C 
ENDBRANCH   7  10
BRANCH   1  12
ATOM     12  C   UNL     1      99.541 105.241 101.836  0.00  0.00    +0.000 C 
BRANCH  12  14
ATOM     13  C   UNL     1     101.116 106.507 103.402  0.00  0.00    +0.000 C 
ATOM     14  C   UNL     1     100.954 105.310 102.456  0.00  0.00    +0.000 C 
BRANCH  14  15
ATOM     15  N   UNL     1     101.224 104.065 103.195  0.00  0.00    +0.000 NA
ATOM     16  H   UNL     1     101.820 104.244 104.002  0.00  0.00    +0.000 HD
ATOM     17  H   UNL     1     101.734 103.407 102.609  0.00  0.00    +0.000 HD
ENDBRANCH  14  15
ENDBRANCH  12  14
ENDBRANCH   1  12
TORSDOF 5
ENDMDL
