MODEL 1
REMARK VINA RESULT:    -6.469      0.000      0.000
REMARK INTER + INTRA:         -10.079
REMARK INTER:                  -9.117
REMARK INTRA:                  -0.962
REMARK UNBOUND:                -0.962
REMARK  Name = 
REMARK  9 active torsions:
REMARK  status: ('A' for Active; 'I' for Inactive)
REMARK    1  A    between atoms: C_1  and  C_2
REMARK    2  A    between atoms: C_2  and  C_3
REMARK    3  A    between atoms: C_3  and  N_4
REMARK    4  A    between atoms: N_4  and  C_5
REMARK    5  A    between atoms: N_4  and  C_8
REMARK    6  A    between atoms: C_5  and  C_6
REMARK    7  A    between atoms: C_6  and  C_7
REMARK    8  A    between atoms: C_8  and  C_9
REMARK    9  A    between atoms: C_9  and  C_10
REMARK                            x       y       z     vdW  Elec       q    Type
REMARK                         _______ _______ _______ _____ _____    ______ ____
ROOT
ATOM      1  C   UNL     1      95.835 107.216  90.466  0.00  0.00    +0.000 A 
ATOM      2  C   UNL     1      94.993 106.256  89.937  0.00  0.00    +0.000 A 
ATOM      3  N   UNL     1      95.716 105.473  89.077  0.00  0.00    +0.000 N 
ATOM      4  C   UNL     1      97.021 105.900  89.032  0.00  0.00    +0.000 A 
ATOM      5  C   UNL     1      98.109 105.396  88.307  0.00  0.00    +0.000 A 
ATOM      6  C   UNL     1      99.340 106.044  88.453  0.00  0.00    +0.000 A 
ATOM      7  C   UNL     1      99.471 107.152  89.285  0.00  0.00    +0.000 A 
ATOM      8  C   UNL     1      98.374 107.642  90.001  0.00  0.00    +0.000 A 
ATOM      9  C   UNL     1      97.125 107.003  89.881  0.00  0.00    +0.000 A 
ATOM     10  H   UNL     1      95.351 104.690  88.554  0.00  0.00    +0.000 HD
ENDROOT
BRANCH   1  11
ATOM     11  C   UNL     1      95.458 108.272  91.464  0.00  0.00    +0.000 C 
BRANCH  11  12
ATOM     12  C   UNL     1      95.027 107.661  92.811  0.00  0.00    +0.000 C 
BRANCH  12  13
ATOM     13  N   UNL     1      95.944 107.893  93.957  0.00  0.00    +0.000 NA
BRANCH  13  14
ATOM     14  C   UNL     1      96.598 106.612  94.300  0.00  0.00    +0.000 C 
BRANCH  14  16
ATOM     15  C   UNL     1      98.926 106.344  95.335  0.00  0.00    +0.000 C 
ATOM     16  C   UNL     1      98.112 106.512  94.061  0.00  0.00    +0.000 C 
ENDBRANCH  14  16
ENDBRANCH  13  14
BRANCH  13  17
ATOM     17  C   UNL     1      96.890 109.001  93.734  0.00  0.00    +0.000 C 
BRANCH  17  18
ATOM     18  C   UNL     1      96.821 110.162  94.736  0.00  0.00    +0.000 C 
ATOM     19  C   UNL     1      97.557 109.832  96.026  0.00  0.00    +0.000 C 
ENDBRANCH  17  18
ENDBRANCH  13  17
ENDBRANCH  12  13
ENDBRANCH  11  12
ENDBRANCH   1  11
TORSDOF 7
ENDMDL
MODEL 2
REMARK VINA RESULT:    -6.250      2.452      4.038
REMARK INTER + INTRA:          -9.769
REMARK INTER:                  -9.197
REMARK INTRA:                  -0.573
REMARK UNBOUND:                -0.962
REMARK  Name = 
REMARK  9 active torsions:
REMARK  status: ('A' for Active; 'I' for Inactive)
REMARK    1  A    between atoms: C_1  and  C_2
REMARK    2  A    between atoms: C_2  and  C_3
REMARK    3  A    between atoms: C_3  and  N_4
REMARK    4  A    between atoms: N_4  and  C_5
REMARK    5  A    between atoms: N_4  and  C_8
REMARK    6  A    between atoms: C_5  and  C_6
REMARK    7  A    between atoms: C_6  and  C_7
REMARK    8  A    between atoms: C_8  and  C_9
REMARK    9  A    between atoms: C_9  and  C_10
REMARK                            x       y       z     vdW  Elec       q    Type
REMARK                         _______ _______ _______ _____ _____    ______ ____
ROOT
ATOM      1  C   UNL     1      97.030 107.929  93.331  0.00  0.00    +0.000 A 
ATOM      2  C   UNL     1      96.851 106.654  93.834  0.00  0.00    +0.000 A 
ATOM      3  N   UNL     1      97.205 105.753  92.865  0.00  0.00    +0.000 N 
ATOM      4  C   UNL     1      97.616 106.414  91.732  0.00  0.00    +0.000 A 
ATOM      5  C   UNL     1      98.075 105.905  90.510  0.00  0.00    +0.000 A 
ATOM      6  C   UNL     1      98.425 106.826  89.517  0.00  0.00    +0.000 A 
ATOM      7  C   UNL     1      98.313 108.195  89.739  0.00  0.00    +0.000 A 
ATOM      8  C   UNL     1      97.852 108.685  90.965  0.00  0.00    +0.000 A 
ATOM      9  C   UNL     1      97.502 107.781  91.987  0.00  0.00    +0.000 A 
ATOM     10  H   UNL     1      97.178 104.748  92.964  0.00  0.00    +0.000 HD
ENDROOT
BRANCH   1  11
ATOM     11  C   UNL     1      96.777 109.214  94.064  0.00  0.00    +0.000 C 
BRANCH  11  12
ATOM     12  C   UNL     1      95.572 109.103  95.018  0.00  0.00    +0.000 C 
BRANCH  12  13
ATOM     13  N   UNL     1      95.539 110.073  96.144  0.00  0.00    +0.000 NA
BRANCH  13  14
ATOM     14  C   UNL     1      95.868 111.415  95.616  0.00  0.00    +0.000 C 
BRANCH  14  16
ATOM     15  C   UNL     1      94.074 112.884  94.528  0.00  0.00    +0.000 C 
ATOM     16  C   UNL     1      94.818 112.519  95.804  0.00  0.00    +0.000 C 
ENDBRANCH  14  16
ENDBRANCH  13  14
BRANCH  13  17
ATOM     17  C   UNL     1      94.283 110.031  96.913  0.00  0.00    +0.000 C 
BRANCH  17  18
ATOM     18  C   UNL     1      94.392 109.519  98.357  0.00  0.00    +0.000 C 
ATOM     19  C   UNL     1      95.205 110.467  99.227  0.00  0.00    +0.000 C 
ENDBRANCH  17  18
ENDBRANCH  13  17
ENDBRANCH  12  13
ENDBRANCH  11  12
ENDBRANCH   1  11
TORSDOF 7
ENDMDL
MODEL 3
REMARK VINA RESULT:    -6.209      0.988      2.303
REMARK INTER + INTRA:          -9.712
REMARK INTER:                  -8.889
REMARK INTRA:                  -0.824
REMARK UNBOUND:                -0.962
REMARK  Name = 
REMARK  9 active torsions:
REMARK  status: ('A' for Active; 'I' for Inactive)
REMARK    1  A    between atoms: C_1  and  C_2
REMARK    2  A    between atoms: C_2  and  C_3
REMARK    3  A    between atoms: C_3  and  N_4
REMARK    4  A    between atoms: N_4  and  C_5
REMARK    5  A    between atoms: N_4  and  C_8
REMARK    6  A    between atoms: C_5  and  C_6
REMARK    7  A    between atoms: C_6  and  C_7
REMARK    8  A    between atoms: C_8  and  C_9
REMARK    9  A    between atoms: C_9  and  C_10
REMARK                            x       y       z     vdW  Elec       q    Type
REMARK                         _______ _______ _______ _____ _____    ______ ____
ROOT
ATOM      1  C   UNL     1      95.717 107.068  90.580  0.00  0.00    +0.000 A 
ATOM      2  C   UNL     1      94.874 106.123  90.026  0.00  0.00    +0.000 A 
ATOM      3  N   UNL     1      95.583 105.394  89.110  0.00  0.00    +0.000 N 
ATOM      4  C   UNL     1      96.881 105.842  89.051  0.00  0.00    +0.000 A 
ATOM      5  C   UNL     1      97.956 105.391  88.273  0.00  0.00    +0.000 A 
ATOM      6  C   UNL     1      99.181 106.049  88.419  0.00  0.00    +0.000 A 
ATOM      7  C   UNL     1      99.320 107.117  89.301  0.00  0.00    +0.000 A 
ATOM      8  C   UNL     1      98.236 107.554  90.070  0.00  0.00    +0.000 A 
ATOM      9  C   UNL     1      96.993 106.903  89.951  0.00  0.00    +0.000 A 
ATOM     10  H   UNL     1      95.215 104.632  88.558  0.00  0.00    +0.000 HD
ENDROOT
BRANCH   1  11
ATOM     11  C   UNL     1      95.353 108.067  91.639  0.00  0.00    +0.000 C 
BRANCH  11  12
ATOM     12  C   UNL     1      95.727 107.572  93.049  0.00  0.00    +0.000 C 
BRANCH  12  13
ATOM     13  N   UNL     1      97.113 107.863  93.498  0.00  0.00    +0.000 NA
BRANCH  13  14
ATOM     14  C   UNL     1      97.051 108.848  94.599  0.00  0.00    +0.000 C 
BRANCH  14  16
ATOM     15  C   UNL     1      95.692 108.560  96.750  0.00  0.00    +0.000 C 
ATOM     16  C   UNL     1      95.699 109.029  95.304  0.00  0.00    +0.000 C 
ENDBRANCH  14  16
ENDBRANCH  13  14
BRANCH  13  17
ATOM     17  C   UNL     1      97.887 106.653  93.828  0.00  0.00    +0.000 C 
BRANCH  17  18
ATOM     18  C   UNL     1      97.224 105.674  94.809  0.00  0.00    +0.000 C 
ATOM     19  C   UNL     1      98.125 104.486  95.109  0.00  0.00    +0.000 C 
ENDBRANCH  17  18
ENDBRANCH  13  17
ENDBRANCH  12  13
ENDBRANCH  11  12
ENDBRANCH   1  11
TORSDOF 7
ENDMDL
MODEL 4
REMARK VINA RESULT:    -6.177      2.156      3.530
REMARK INTER + INTRA:          -9.666
REMARK INTER:                  -8.800
REMARK INTRA:                  -0.867
REMARK UNBOUND:                -0.962
REMARK  Name = 
REMARK  9 active torsions:
REMARK  status: ('A' for Active; 'I' for Inactive)
REMARK    1  A    between atoms: C_1  and  C_2
REMARK    2  A    between atoms: C_2  and  C_3
REMARK    3  A    between atoms: C_3  and  N_4
REMARK    4  A    between atoms: N_4  and  C_5
REMARK    5  A    between atoms: N_4  and  C_8
REMARK    6  A    between atoms: C_5  and  C_6
REMARK    7  A    between atoms: C_6  and  C_7
REMARK    8  A    between atoms: C_8  and  C_9
REMARK    9  A    between atoms: C_9  and  C_10
REMARK                            x       y       z     vdW  Elec       q    Type
REMARK                         _______ _______ _______ _____ _____    ______ ____
ROOT
ATOM      1  C   UNL     1      97.058 107.918  93.244  0.00  0.00    +0.000 A 
ATOM      2  C   UNL     1      96.845 106.651  93.753  0.00  0.00    +0.000 A 
ATOM      3  N   UNL     1      97.192 105.736  92.795  0.00  0.00    +0.000 N 
ATOM      4  C   UNL     1      97.631 106.379  91.663  0.00  0.00    +0.000 A 
ATOM      5  C   UNL     1      98.095 105.852  90.450  0.00  0.00    +0.000 A 
ATOM      6  C   UNL     1      98.477 106.758  89.456  0.00  0.00    +0.000 A 
ATOM      7  C   UNL     1      98.392 108.131  89.667  0.00  0.00    +0.000 A 
ATOM      8  C   UNL     1      97.927 108.640  90.884  0.00  0.00    +0.000 A 
ATOM      9  C   UNL     1      97.545 107.750  91.907  0.00  0.00    +0.000 A 
ATOM     10  H   UNL     1      97.140 104.733  92.900  0.00  0.00    +0.000 HD
ENDROOT
BRANCH   1  11
ATOM     11  C   UNL     1      96.824 109.214  93.965  0.00  0.00    +0.000 C 
BRANCH  11  12
ATOM     12  C   UNL     1      95.726 109.084  95.037  0.00  0.00    +0.000 C 
BRANCH  12  13
ATOM     13  N   UNL     1      96.125 109.430  96.426  0.00  0.00    +0.000 NA
BRANCH  13  14
ATOM     14  C   UNL     1      95.330 108.603  97.361  0.00  0.00    +0.000 C 
BRANCH  14  16
ATOM     15  C   UNL     1      95.013 110.339  99.217  0.00  0.00    +0.000 C 
ATOM     16  C   UNL     1      94.348 109.338  98.285  0.00  0.00    +0.000 C 
ENDBRANCH  14  16
ENDBRANCH  13  14
BRANCH  13  17
ATOM     17  C   UNL     1      97.578 109.349  96.654  0.00  0.00    +0.000 C 
BRANCH  17  18
ATOM     18  C   UNL     1      98.092 108.051  97.293  0.00  0.00    +0.000 C 
ATOM     19  C   UNL     1      99.234 107.446  96.491  0.00  0.00    +0.000 C 
ENDBRANCH  17  18
ENDBRANCH  13  17
ENDBRANCH  12  13
ENDBRANCH  11  12
ENDBRANCH   1  11
TORSDOF 7
ENDMDL
MODEL 5
REMARK VINA RESULT:    -6.109      1.897      2.320
REMARK INTER + INTRA:          -9.570
REMARK INTER:                  -8.861
REMARK INTRA:                  -0.710
REMARK UNBOUND:                -0.962
REMARK  Name = 
REMARK  9 active torsions:
REMARK  status: ('A' for Active; 'I' for Inactive)
REMARK    1  A    between atoms: C_1  and  C_2
REMARK    2  A    between atoms: C_2  and  C_3
REMARK    3  A    between atoms: C_3  and  N_4
REMARK    4  A    between atoms: N_4  and  C_5
REMARK    5  A    between atoms: N_4  and  C_8
REMARK    6  A    between atoms: C_5  and  C_6
REMARK    7  A    between atoms: C_6  and  C_7
REMARK    8  A    between atoms: C_8  and  C_9
REMARK    9  A    between atoms: C_9  and  C_10
REMARK                            x       y       z     vdW  Elec       q    Type
REMARK                         _______ _______ _______ _____ _____    ______ ____
ROOT
ATOM      1  C   UNL     1      96.201 107.499  92.082  0.00  0.00    +0.000 A 
ATOM      2  C   UNL     1      94.858 107.204  91.942  0.00  0.00    +0.000 A 
ATOM      3  N   UNL     1      94.701 106.421  90.831  0.00  0.00    +0.000 N 
ATOM      4  C   UNL     1      95.919 106.192  90.236  0.00  0.00    +0.000 A 
ATOM      5  C   UNL     1      96.237 105.443  89.096  0.00  0.00    +0.000 A 
ATOM      6  C   UNL     1      97.581 105.389  88.713  0.00  0.00    +0.000 A 
ATOM      7  C   UNL     1      98.560 106.062  89.438  0.00  0.00    +0.000 A 
ATOM      8  C   UNL     1      98.224 106.805  90.574  0.00  0.00    +0.000 A 
ATOM      9  C   UNL     1      96.879 106.869  90.989  0.00  0.00    +0.000 A 
ATOM     10  H   UNL     1      93.822 106.054  90.494  0.00  0.00    +0.000 HD
ENDROOT
BRANCH   1  11
ATOM     11  C   UNL     1      96.819 108.320  93.176  0.00  0.00    +0.000 C 
BRANCH  11  12
ATOM     12  C   UNL     1      95.755 109.040  94.025  0.00  0.00    +0.000 C 
BRANCH  12  13
ATOM     13  N   UNL     1      95.712 108.678  95.465  0.00  0.00    +0.000 NA
BRANCH  13  14
ATOM     14  C   UNL     1      96.928 107.902  95.789  0.00  0.00    +0.000 C 
BRANCH  14  16
ATOM     15  C   UNL     1      96.601 105.363  95.722  0.00  0.00    +0.000 C 
ATOM     16  C   UNL     1      96.740 106.605  96.589  0.00  0.00    +0.000 C 
ENDBRANCH  14  16
ENDBRANCH  13  14
BRANCH  13  17
ATOM     17  C   UNL     1      95.492 109.834  96.352  0.00  0.00    +0.000 C 
BRANCH  17  18
ATOM     18  C   UNL     1      94.216 109.800  97.204  0.00  0.00    +0.000 C 
ATOM     19  C   UNL     1      94.520 109.457  98.655  0.00  0.00    +0.000 C 
ENDBRANCH  17  18
ENDBRANCH  13  17
ENDBRANCH  12  13
ENDBRANCH  11  12
ENDBRANCH   1  11
TORSDOF 7
ENDMDL
MODEL 6
REMARK VINA RESULT:    -6.088      2.290      3.547
REMARK INTER + INTRA:          -9.541
REMARK INTER:                  -8.797
REMARK INTRA:                  -0.744
REMARK UNBOUND:                -0.962
REMARK  Name = 
REMARK  9 active torsions:
REMARK  status: ('A' for Active; 'I' for Inactive)
REMARK    1  A    between atoms: C_1  and  C_2
REMARK    2  A    between atoms: C_2  and  C_3
REMARK    3  A    between atoms: C_3  and  N_4
REMARK    4  A    between atoms: N_4  and  C_5
REMARK    5  A    between atoms: N_4  and  C_8
REMARK    6  A    between atoms: C_5  and  C_6
REMARK    7  A    between atoms: C_6  and  C_7
REMARK    8  A    between atoms: C_8  and  C_9
REMARK    9  A    between atoms: C_9  and  C_10
REMARK                            x       y       z     vdW  Elec       q    Type
REMARK                         _______ _______ _______ _____ _____    ______ ____
ROOT
ATOM      1  C   UNL     1      97.040 107.969  93.377  0.00  0.00    +0.000 A 
ATOM      2  C   UNL     1      96.830 106.698  93.877  0.00  0.00    +0.000 A 
ATOM      3  N   UNL     1      97.152 105.791  92.903  0.00  0.00    +0.000 N 
ATOM      4  C   UNL     1      97.574 106.443  91.769  0.00  0.00    +0.000 A 
ATOM      5  C   UNL     1      98.011 105.926  90.543  0.00  0.00    +0.000 A 
ATOM      6  C   UNL     1      98.379 106.840  89.550  0.00  0.00    +0.000 A 
ATOM      7  C   UNL     1      98.306 108.212  89.777  0.00  0.00    +0.000 A 
ATOM      8  C   UNL     1      97.867 108.710  91.008  0.00  0.00    +0.000 A 
ATOM      9  C   UNL     1      97.499 107.812  92.030  0.00  0.00    +0.000 A 
ATOM     10  H   UNL     1      97.098 104.787  92.999  0.00  0.00    +0.000 HD
ENDROOT
BRANCH   1  11
ATOM     11  C   UNL     1      96.827 109.258  94.116  0.00  0.00    +0.000 C 
BRANCH  11  12
ATOM     12  C   UNL     1      95.728 109.131  95.187  0.00  0.00    +0.000 C 
BRANCH  12  13
ATOM     13  N   UNL     1      96.024 109.755  96.504  0.00  0.00    +0.000 NA
BRANCH  13  14
ATOM     14  C   UNL     1      96.113 108.683  97.520  0.00  0.00    +0.000 C 
BRANCH  14  16
ATOM     15  C   UNL     1      93.859 109.439  98.473  0.00  0.00    +0.000 C 
ATOM     16  C   UNL     1      95.217 108.817  98.760  0.00  0.00    +0.000 C 
ENDBRANCH  14  16
ENDBRANCH  13  14
BRANCH  13  17
ATOM     17  C   UNL     1      97.198 110.645  96.478  0.00  0.00    +0.000 C 
BRANCH  17  18
ATOM     18  C   UNL     1      96.905 112.151  96.528  0.00  0.00    +0.000 C 
ATOM     19  C   UNL     1      95.511 112.432  97.069  0.00  0.00    +0.000 C 
ENDBRANCH  17  18
ENDBRANCH  13  17
ENDBRANCH  12  13
ENDBRANCH  11  12
ENDBRANCH   1  11
TORSDOF 7
ENDMDL
MODEL 7
REMARK VINA RESULT:    -5.950      2.284      3.886
REMARK INTER + INTRA:          -9.347
REMARK INTER:                  -8.826
REMARK INTRA:                  -0.521
REMARK UNBOUND:                -0.962
REMARK  Name = 
REMARK  9 active torsions:
REMARK  status: ('A' for Active; 'I' for Inactive)
REMARK    1  A    between atoms: C_1  and  C_2
REMARK    2  A    between atoms: C_2  and  C_3
REMARK    3  A    between atoms: C_3  and  N_4
REMARK    4  A    between atoms: N_4  and  C_5
REMARK    5  A    between atoms: N_4  and  C_8
REMARK    6  A    between atoms: C_5  and  C_6
REMARK    7  A    between atoms: C_6  and  C_7
REMARK    8  A    between atoms: C_8  and  C_9
REMARK    9  A    between atoms: C_9  and  C_10
REMARK                            x       y       z     vdW  Elec       q    Type
REMARK                         _______ _______ _______ _____ _____    ______ ____
ROOT
ATOM      1  C   UNL     1      97.030 107.966  93.238  0.00  0.00    +0.000 A 
ATOM      2  C   UNL     1      96.830 106.725  93.813  0.00  0.00    +0.000 A 
ATOM      3  N   UNL     1      97.187 105.765  92.904  0.00  0.00    +0.000 N 
ATOM      4  C   UNL     1      97.620 106.353  91.740  0.00  0.00    +0.000 A 
ATOM      5  C   UNL     1      98.089 105.768  90.556  0.00  0.00    +0.000 A 
ATOM      6  C   UNL     1      98.462 106.625  89.516  0.00  0.00    +0.000 A 
ATOM      7  C   UNL     1      98.363 108.007  89.655  0.00  0.00    +0.000 A 
ATOM      8  C   UNL     1      97.892 108.573  90.844  0.00  0.00    +0.000 A 
ATOM      9  C   UNL     1      97.518 107.734  91.912  0.00  0.00    +0.000 A 
ATOM     10  H   UNL     1      97.146 104.768  93.061  0.00  0.00    +0.000 HD
ENDROOT
BRANCH   1  11
ATOM     11  C   UNL     1      96.782 109.295  93.891  0.00  0.00    +0.000 C 
BRANCH  11  12
ATOM     12  C   UNL     1      96.978 109.231  95.417  0.00  0.00    +0.000 C 
BRANCH  12  13
ATOM     13  N   UNL     1      97.109 110.537  96.115  0.00  0.00    +0.000 NA
BRANCH  13  14
ATOM     14  C   UNL     1      97.070 111.614  95.103  0.00  0.00    +0.000 C 
BRANCH  14  16
ATOM     15  C   UNL     1      98.263 113.753  94.354  0.00  0.00    +0.000 C 
ATOM     16  C   UNL     1      97.647 112.978  95.509  0.00  0.00    +0.000 C 
ENDBRANCH  14  16
ENDBRANCH  13  14
BRANCH  13  17
ATOM     17  C   UNL     1      96.136 110.714  97.207  0.00  0.00    +0.000 C 
BRANCH  17  18
ATOM     18  C   UNL     1      94.769 110.042  97.012  0.00  0.00    +0.000 C 
ATOM     19  C   UNL     1      94.217 109.504  98.323  0.00  0.00    +0.000 C 
ENDBRANCH  17  18
ENDBRANCH  13  17
ENDBRANCH  12  13
ENDBRANCH  11  12
ENDBRANCH   1  11
TORSDOF 7
ENDMDL
MODEL 8
REMARK VINA RESULT:    -5.945      2.171      3.253
REMARK INTER + INTRA:          -9.340
REMARK INTER:                  -8.718
REMARK INTRA:                  -0.622
REMARK UNBOUND:                -0.962
REMARK  Name = 
REMARK  9 active torsions:
REMARK  status: ('A' for Active; 'I' for Inactive)
REMARK    1  A    between atoms: C_1  and  C_2
REMARK    2  A    between atoms: C_2  and  C_3
REMARK    3  A    between atoms: C_3  and  N_4
REMARK    4  A    between atoms: N_4  and  C_5
REMARK    5  A    between atoms: N_4  and  C_8
REMARK    6  A    between atoms: C_5  and  C_6
REMARK    7  A    between atoms: C_6  and  C_7
REMARK    8  A    between atoms: C_8  and  C_9
REMARK    9  A    between atoms: C_9  and  C_10
REMARK                            x       y       z     vdW  Elec       q    Type
REMARK                         _______ _______ _______ _____ _____    ______ ____
ROOT
ATOM      1  C   UNL     1      96.999 107.994  93.255  0.00  0.00    +0.000 A 
ATOM      2  C   UNL     1      96.827 106.717  93.754  0.00  0.00    +0.000 A 
ATOM      3  N   UNL     1      97.211 105.821  92.793  0.00  0.00    +0.000 N 
ATOM      4  C   UNL     1      97.635 106.486  91.668  0.00  0.00    +0.000 A 
ATOM      5  C   UNL     1      98.125 105.984  90.455  0.00  0.00    +0.000 A 
ATOM      6  C   UNL     1      98.483 106.909  89.469  0.00  0.00    +0.000 A 
ATOM      7  C   UNL     1      98.349 108.277  89.688  0.00  0.00    +0.000 A 
ATOM      8  C   UNL     1      97.859 108.761  90.906  0.00  0.00    +0.000 A 
ATOM      9  C   UNL     1      97.500 107.852  91.921  0.00  0.00    +0.000 A 
ATOM     10  H   UNL     1      97.193 104.816  92.891  0.00  0.00    +0.000 HD
ENDROOT
BRANCH   1  11
ATOM     11  C   UNL     1      96.716 109.276  93.983  0.00  0.00    +0.000 C 
BRANCH  11  12
ATOM     12  C   UNL     1      95.496 109.150  94.913  0.00  0.00    +0.000 C 
BRANCH  12  13
ATOM     13  N   UNL     1      95.770 109.255  96.370  0.00  0.00    +0.000 NA
BRANCH  13  14
ATOM     14  C   UNL     1      97.174 109.683  96.552  0.00  0.00    +0.000 C 
BRANCH  14  16
ATOM     15  C   UNL     1      99.523 109.255  97.479  0.00  0.00    +0.000 C 
ATOM     16  C   UNL     1      98.101 108.736  97.328  0.00  0.00    +0.000 C 
ENDBRANCH  14  16
ENDBRANCH  13  14
BRANCH  13  17
ATOM     17  C   UNL     1      94.796 110.095  97.089  0.00  0.00    +0.000 C 
BRANCH  17  18
ATOM     18  C   UNL     1      94.660 109.833  98.596  0.00  0.00    +0.000 C 
ATOM     19  C   UNL     1      95.389 110.887  99.415  0.00  0.00    +0.000 C 
ENDBRANCH  17  18
ENDBRANCH  13  17
ENDBRANCH  12  13
ENDBRANCH  11  12
ENDBRANCH   1  11
TORSDOF 7
ENDMDL
MODEL 9
REMARK VINA RESULT:    -5.708      2.615      4.332
REMARK INTER + INTRA:          -9.006
REMARK INTER:                  -8.275
REMARK INTRA:                  -0.731
REMARK UNBOUND:                -0.962
REMARK  Name = 
REMARK  9 active torsions:
REMARK  status: ('A' for Active; 'I' for Inactive)
REMARK    1  A    between atoms: C_1  and  C_2
REMARK    2  A    between atoms: C_2  and  C_3
REMARK    3  A    between atoms: C_3  and  N_4
REMARK    4  A    between atoms: N_4  and  C_5
REMARK    5  A    between atoms: N_4  and  C_8
REMARK    6  A    between atoms: C_5  and  C_6
REMARK    7  A    between atoms: C_6  and  C_7
REMARK    8  A    between atoms: C_8  and  C_9
REMARK    9  A    between atoms: C_9  and  C_10
REMARK                            x       y       z     vdW  Elec       q    Type
REMARK                         _______ _______ _______ _____ _____    ______ ____
ROOT
ATOM      1  C   UNL     1      97.201 106.847  93.345  0.00  0.00    +0.000 A 
ATOM      2  C   UNL     1      96.297 107.883  93.485  0.00  0.00    +0.000 A 
ATOM      3  N   UNL     1      95.599 108.010  92.314  0.00  0.00    +0.000 N 
ATOM      4  C   UNL     1      96.028 107.073  91.404  0.00  0.00    +0.000 A 
ATOM      5  C   UNL     1      95.595 106.825  90.095  0.00  0.00    +0.000 A 
ATOM      6  C   UNL     1      96.225 105.795  89.389  0.00  0.00    +0.000 A 
ATOM      7  C   UNL     1      97.249 105.051  89.970  0.00  0.00    +0.000 A 
ATOM      8  C   UNL     1      97.668 105.313  91.278  0.00  0.00    +0.000 A 
ATOM      9  C   UNL     1      97.044 106.338  92.016  0.00  0.00    +0.000 A 
ATOM     10  H   UNL     1      94.870 108.686  92.138  0.00  0.00    +0.000 HD
ENDROOT
BRANCH   1  11
ATOM     11  C   UNL     1      98.156 106.358  94.394  0.00  0.00    +0.000 C 
BRANCH  11  12
ATOM     12  C   UNL     1      97.420 105.843  95.646  0.00  0.00    +0.000 C 
BRANCH  12  13
ATOM     13  N   UNL     1      98.028 104.669  96.325  0.00  0.00    +0.000 NA
BRANCH  13  14
ATOM     14  C   UNL     1      97.723 103.459  95.532  0.00  0.00    +0.000 C 
BRANCH  14  16
ATOM     15  C   UNL     1      98.674 101.883  93.751  0.00  0.00    +0.000 C 
ATOM     16  C   UNL     1      98.912 102.605  95.069  0.00  0.00    +0.000 C 
ENDBRANCH  14  16
ENDBRANCH  13  14
BRANCH  13  17
ATOM     17  C   UNL     1      99.463 104.841  96.615  0.00  0.00    +0.000 C 
BRANCH  17  18
ATOM     18  C   UNL     1      99.857 104.841  98.099  0.00  0.00    +0.000 C 
ATOM     19  C   UNL     1      99.473 103.536  98.780  0.00  0.00    +0.000 C 
ENDBRANCH  17  18
ENDBRANCH  13  17
ENDBRANCH  12  13
ENDBRANCH  11  12
ENDBRANCH   1  11
TORSDOF 7
ENDMDL
