MODEL 1
REMARK VINA RESULT:    -8.656      0.000      0.000
REMARK INTER + INTRA:          -9.214
REMARK INTER:                  -9.163
REMARK INTRA:                  -0.052
REMARK UNBOUND:                -0.052
REMARK  Name = 
REMARK  2 active torsions:
REMARK  status: ('A' for Active; 'I' for Inactive)
REMARK    1  A    between atoms: C_1  and  O_2
REMARK    2  A    between atoms: O_2  and  C_3
REMARK                            x       y       z     vdW  Elec       q    Type
REMARK                         _______ _______ _______ _____ _____    ______ ____
ROOT
ATOM      1  C   UNL     1      97.521 107.289  90.217  0.00  0.00    +0.000 A 
ATOM      2  C   UNL     1      96.136 107.186  90.042  0.00  0.00    +0.000 A 
ATOM      3  C   UNL     1      95.261 107.171  91.133  0.00  0.00    +0.000 A 
ATOM      4  C   UNL     1      95.863 107.282  92.386  0.00  0.00    +0.000 A 
ATOM      5  N   UNL     1      95.447 106.916  93.652  0.00  0.00    +0.000 N 
ATOM      6  C   UNL     1      96.508 107.101  94.521  0.00  0.00    +0.000 A 
ATOM      7  C   UNL     1      97.207 108.138  93.927  0.00  0.00    +0.000 A 
ATOM      8  C   UNL     1      97.180 107.706  92.568  0.00  0.00    +0.000 A 
ATOM      9  C   UNL     1      98.049 107.654  91.462  0.00  0.00    +0.000 A 
ATOM     10  C   UNL     1      97.135 109.613  94.326  0.00  0.00    +0.000 C 
ATOM     11  C   UNL     1      96.593 109.938  95.740  0.00  0.00    +0.000 C 
ATOM     12  C   UNL     1      96.211 111.417  95.915  0.00  0.00    +0.000 C 
ATOM     13  C   UNL     1      94.724 111.435  96.242  0.00  0.00    +0.000 C 
ATOM     14  N   UNL     1      94.409 110.136  96.818  0.00  0.00    +0.000 NA
ATOM     15  C   UNL     1      94.593 110.021  98.268  0.00  0.00    +0.000 C 
ATOM     16  C   UNL     1      95.622 108.924  98.491  0.00  0.00    +0.000 C 
ATOM     17  C   UNL     1      95.527 108.093  97.216  0.00  0.00    +0.000 C 
ATOM     18  C   UNL     1      95.312 109.174  96.153  0.00  0.00    +0.000 C 
ATOM     19  C   UNL     1      96.735 107.175  97.041  0.00  0.00    +0.000 C 
ATOM     20  C   UNL     1      96.703 106.341  95.777  0.00  0.00    +0.000 C 
ATOM     21  H   UNL     1      94.619 106.372  93.836  0.00  0.00    +0.000 HD
ENDROOT
BRANCH   1  23
ATOM     22  C   UNL     1      98.388 105.645  88.764  0.00  0.00    +0.000 C 
ATOM     23  O   UNL     1      98.275 107.026  89.101  0.00  0.00    +0.000 OA
ENDBRANCH   1  23
TORSDOF 1
ENDMDL
MODEL 2
REMARK VINA RESULT:    -8.165      2.155      2.845
REMARK INTER + INTRA:          -8.694
REMARK INTER:                  -8.633
REMARK INTRA:                  -0.061
REMARK UNBOUND:                -0.052
REMARK  Name = 
REMARK  2 active torsions:
REMARK  status: ('A' for Active; 'I' for Inactive)
REMARK    1  A    between atoms: C_1  and  O_2
REMARK    2  A    between atoms: O_2  and  C_3
REMARK                            x       y       z     vdW  Elec       q    Type
REMARK                         _______ _______ _______ _____ _____    ______ ____
ROOT
ATOM      1  C   UNL     1      97.228 106.275  92.829  0.00  0.00    +0.000 A 
ATOM      2  C   UNL     1      96.448 107.284  92.253  0.00  0.00    +0.000 A 
ATOM      3  C   UNL     1      95.829 108.266  93.034  0.00  0.00    +0.000 A 
ATOM      4  C   UNL     1      96.061 108.173  94.406  0.00  0.00    +0.000 A 
ATOM      5  N   UNL     1      95.361 108.645  95.500  0.00  0.00    +0.000 N 
ATOM      6  C   UNL     1      95.947 108.122  96.641  0.00  0.00    +0.000 A 
ATOM      7  C   UNL     1      97.267 107.962  96.254  0.00  0.00    +0.000 A 
ATOM      8  C   UNL     1      97.077 107.393  94.961  0.00  0.00    +0.000 A 
ATOM      9  C   UNL     1      97.638 106.377  94.164  0.00  0.00    +0.000 A 
ATOM     10  C   UNL     1      98.418 108.916  96.577  0.00  0.00    +0.000 C 
ATOM     11  C   UNL     1      98.215 109.898  97.756  0.00  0.00    +0.000 C 
ATOM     12  C   UNL     1      99.240 111.043  97.773  0.00  0.00    +0.000 C 
ATOM     13  C   UNL     1      98.439 112.332  97.642  0.00  0.00    +0.000 C 
ATOM     14  N   UNL     1      97.099 112.039  98.132  0.00  0.00    +0.000 NA
ATOM     15  C   UNL     1      96.896 112.213  99.574  0.00  0.00    +0.000 C 
ATOM     16  C   UNL     1      96.475 110.858 100.120  0.00  0.00    +0.000 C 
ATOM     17  C   UNL     1      95.901 110.153  98.896  0.00  0.00    +0.000 C 
ATOM     18  C   UNL     1      96.849 110.625  97.790  0.00  0.00    +0.000 C 
ATOM     19  C   UNL     1      95.777 108.646  99.111  0.00  0.00    +0.000 C 
ATOM     20  C   UNL     1      95.233 107.890  97.916  0.00  0.00    +0.000 C 
ATOM     21  H   UNL     1      94.448 109.066  95.444  0.00  0.00    +0.000 HD
ENDROOT
BRANCH   1  23
ATOM     22  C   UNL     1      97.279 105.466  90.613  0.00  0.00    +0.000 C 
ATOM     23  O   UNL     1      97.553 105.236  91.994  0.00  0.00    +0.000 OA
ENDBRANCH   1  23
TORSDOF 1
ENDMDL
MODEL 3
REMARK VINA RESULT:    -8.034      3.150      4.733
REMARK INTER + INTRA:          -8.555
REMARK INTER:                  -8.509
REMARK INTRA:                  -0.046
REMARK UNBOUND:                -0.052
REMARK  Name = 
REMARK  2 active torsions:
REMARK  status: ('A' for Active; 'I' for Inactive)
REMARK    1  A    between atoms: C_1  and  O_2
REMARK    2  A    between atoms: O_2  and  C_3
REMARK                            x       y       z     vdW  Elec       q    Type
REMARK                         _______ _______ _______ _____ _____    ______ ____
ROOT
ATOM      1  C   UNL     1      98.382 103.591  96.244  0.00  0.00    +0.000 A 
ATOM      2  C   UNL     1      99.548 104.182  96.743  0.00  0.00    +0.000 A 
ATOM      3  C   UNL     1      99.704 105.571  96.782  0.00  0.00    +0.000 A 
ATOM      4  C   UNL     1      98.619 106.310  96.310  0.00  0.00    +0.000 A 
ATOM      5  N   UNL     1      98.516 107.595  95.813  0.00  0.00    +0.000 N 
ATOM      6  C   UNL     1      97.230 107.764  95.329  0.00  0.00    +0.000 A 
ATOM      7  C   UNL     1      96.492 106.907  96.127  0.00  0.00    +0.000 A 
ATOM      8  C   UNL     1      97.348 105.766  96.118  0.00  0.00    +0.000 A 
ATOM      9  C   UNL     1      97.236 104.366  96.027  0.00  0.00    +0.000 A 
ATOM     10  C   UNL     1      95.662 107.309  97.347  0.00  0.00    +0.000 C 
ATOM     11  C   UNL     1      95.258 108.798  97.469  0.00  0.00    +0.000 C 
ATOM     12  C   UNL     1      94.761 109.176  98.874  0.00  0.00    +0.000 C 
ATOM     13  C   UNL     1      95.714 110.248  99.386  0.00  0.00    +0.000 C 
ATOM     14  N   UNL     1      96.297 110.881  98.211  0.00  0.00    +0.000 NA
ATOM     15  C   UNL     1      95.541 112.005  97.652  0.00  0.00    +0.000 C 
ATOM     16  C   UNL     1      95.186 111.624  96.223  0.00  0.00    +0.000 C 
ATOM     17  C   UNL     1      96.244 110.583  95.868  0.00  0.00    +0.000 C 
ATOM     18  C   UNL     1      96.386 109.819  97.189  0.00  0.00    +0.000 C 
ATOM     19  C   UNL     1      95.855 109.773  94.634  0.00  0.00    +0.000 C 
ATOM     20  C   UNL     1      96.861 108.707  94.249  0.00  0.00    +0.000 C 
ATOM     21  H   UNL     1      99.307 108.184  95.610  0.00  0.00    +0.000 HD
ENDROOT
BRANCH   1  23
ATOM     22  C   UNL     1      98.538 101.867  94.640  0.00  0.00    +0.000 C 
ATOM     23  O   UNL     1      98.460 102.240  96.015  0.00  0.00    +0.000 OA
ENDBRANCH   1  23
TORSDOF 1
ENDMDL
MODEL 4
REMARK VINA RESULT:    -7.971      3.582      5.894
REMARK INTER + INTRA:          -8.489
REMARK INTER:                  -8.449
REMARK INTRA:                  -0.040
REMARK UNBOUND:                -0.052
REMARK  Name = 
REMARK  2 active torsions:
REMARK  status: ('A' for Active; 'I' for Inactive)
REMARK    1  A    between atoms: C_1  and  O_2
REMARK    2  A    between atoms: O_2  and  C_3
REMARK                            x       y       z     vdW  Elec       q    Type
REMARK                         _______ _______ _______ _____ _____    ______ ____
ROOT
ATOM      1  C   UNL     1      94.634 110.324  95.404  0.00  0.00    +0.000 A 
ATOM      2  C   UNL     1      94.366 110.299  96.777  0.00  0.00    +0.000 A 
ATOM      3  C   UNL     1      94.822 109.257  97.592  0.00  0.00    +0.000 A 
ATOM      4  C   UNL     1      95.566 108.272  96.944  0.00  0.00    +0.000 A 
ATOM      5  N   UNL     1      95.833 106.953  97.257  0.00  0.00    +0.000 N 
ATOM      6  C   UNL     1      96.487 106.381  96.180  0.00  0.00    +0.000 A 
ATOM      7  C   UNL     1      97.151 107.461  95.623  0.00  0.00    +0.000 A 
ATOM      8  C   UNL     1      96.114 108.438  95.671  0.00  0.00    +0.000 A 
ATOM      9  C   UNL     1      95.592 109.460  94.857  0.00  0.00    +0.000 A 
ATOM     10  C   UNL     1      98.626 107.810  95.828  0.00  0.00    +0.000 C 
ATOM     11  C   UNL     1      99.557 106.680  96.332  0.00  0.00    +0.000 C 
ATOM     12  C   UNL     1     100.907 107.198  96.856  0.00  0.00    +0.000 C 
ATOM     13  C   UNL     1     100.981 106.783  98.319  0.00  0.00    +0.000 C 
ATOM     14  N   UNL     1     100.105 105.629  98.469  0.00  0.00    +0.000 NA
ATOM     15  C   UNL     1     100.720 104.325  98.204  0.00  0.00    +0.000 C 
ATOM     16  C   UNL     1      99.941 103.702  97.056  0.00  0.00    +0.000 C 
ATOM     17  C   UNL     1      98.592 104.410  97.127  0.00  0.00    +0.000 C 
ATOM     18  C   UNL     1      99.005 105.835  97.505  0.00  0.00    +0.000 C 
ATOM     19  C   UNL     1      97.788 104.236  95.839  0.00  0.00    +0.000 C 
ATOM     20  C   UNL     1      96.446 104.939  95.846  0.00  0.00    +0.000 C 
ATOM     21  H   UNL     1      95.392 106.455  98.014  0.00  0.00    +0.000 HD
ENDROOT
BRANCH   1  23
ATOM     22  C   UNL     1      94.230 112.606  94.963  0.00  0.00    +0.000 C 
ATOM     23  O   UNL     1      93.915 111.243  94.682  0.00  0.00    +0.000 OA
ENDBRANCH   1  23
TORSDOF 1
ENDMDL
MODEL 5
REMARK VINA RESULT:    -7.945      4.834      7.254
REMARK INTER + INTRA:          -8.461
REMARK INTER:                  -8.410
REMARK INTRA:                  -0.051
REMARK UNBOUND:                -0.052
REMARK  Name = 
REMARK  2 active torsions:
REMARK  status: ('A' for Active; 'I' for Inactive)
REMARK    1  A    between atoms: C_1  and  O_2
REMARK    2  A    between atoms: O_2  and  C_3
REMARK                            x       y       z     vdW  Elec       q    Type
REMARK                         _______ _______ _______ _____ _____    ______ ____
ROOT
ATOM      1  C   UNL     1      95.106 109.339  97.855  0.00  0.00    +0.000 A 
ATOM      2  C   UNL     1      95.150 110.142  99.001  0.00  0.00    +0.000 A 
ATOM      3  C   UNL     1      95.631 111.454  98.955  0.00  0.00    +0.000 A 
ATOM      4  C   UNL     1      96.041 111.899  97.698  0.00  0.00    +0.000 A 
ATOM      5  N   UNL     1      96.906 112.901  97.303  0.00  0.00    +0.000 N 
ATOM      6  C   UNL     1      97.081 112.801  95.934  0.00  0.00    +0.000 A 
ATOM      7  C   UNL     1      95.879 112.256  95.516  0.00  0.00    +0.000 A 
ATOM      8  C   UNL     1      95.709 111.247  96.509  0.00  0.00    +0.000 A 
ATOM      9  C   UNL     1      95.281 109.908  96.588  0.00  0.00    +0.000 A 
ATOM     10  C   UNL     1      94.705 113.029  94.913  0.00  0.00    +0.000 C 
ATOM     11  C   UNL     1      95.006 114.430  94.328  0.00  0.00    +0.000 C 
ATOM     12  C   UNL     1      93.740 115.270  94.090  0.00  0.00    +0.000 C 
ATOM     13  C   UNL     1      93.884 116.511  94.961  0.00  0.00    +0.000 C 
ATOM     14  N   UNL     1      95.311 116.700  95.183  0.00  0.00    +0.000 NA
ATOM     15  C   UNL     1      96.014 117.490  94.168  0.00  0.00    +0.000 C 
ATOM     16  C   UNL     1      97.087 116.587  93.580  0.00  0.00    +0.000 C 
ATOM     17  C   UNL     1      97.315 115.555  94.680  0.00  0.00    +0.000 C 
ATOM     18  C   UNL     1      95.893 115.343  95.209  0.00  0.00    +0.000 C 
ATOM     19  C   UNL     1      98.057 114.324  94.163  0.00  0.00    +0.000 C 
ATOM     20  C   UNL     1      98.290 113.255  95.210  0.00  0.00    +0.000 C 
ATOM     21  H   UNL     1      97.491 113.420  97.939  0.00  0.00    +0.000 HD
ENDROOT
BRANCH   1  23
ATOM     22  C   UNL     1      95.689 107.114  97.329  0.00  0.00    +0.000 C 
ATOM     23  O   UNL     1      94.868 108.006  98.081  0.00  0.00    +0.000 OA
ENDBRANCH   1  23
TORSDOF 1
ENDMDL
MODEL 6
REMARK VINA RESULT:    -7.784      4.012      6.441
REMARK INTER + INTRA:          -8.291
REMARK INTER:                  -8.242
REMARK INTRA:                  -0.049
REMARK UNBOUND:                -0.052
REMARK  Name = 
REMARK  2 active torsions:
REMARK  status: ('A' for Active; 'I' for Inactive)
REMARK    1  A    between atoms: C_1  and  O_2
REMARK    2  A    between atoms: O_2  and  C_3
REMARK                            x       y       z     vdW  Elec       q    Type
REMARK                         _______ _______ _______ _____ _____    ______ ____
ROOT
ATOM      1  C   UNL     1      94.187 114.545  94.077  0.00  0.00    +0.000 A 
ATOM      2  C   UNL     1      95.530 114.937  94.037  0.00  0.00    +0.000 A 
ATOM      3  C   UNL     1      96.486 114.357  94.878  0.00  0.00    +0.000 A 
ATOM      4  C   UNL     1      96.009 113.364  95.733  0.00  0.00    +0.000 A 
ATOM      5  N   UNL     1      96.483 112.861  96.929  0.00  0.00    +0.000 N 
ATOM      6  C   UNL     1      95.528 111.999  97.439  0.00  0.00    +0.000 A 
ATOM      7  C   UNL     1      94.911 111.522  96.295  0.00  0.00    +0.000 A 
ATOM      8  C   UNL     1      94.771 112.740  95.566  0.00  0.00    +0.000 A 
ATOM      9  C   UNL     1      93.813 113.379  94.758  0.00  0.00    +0.000 A 
ATOM     10  C   UNL     1      95.191 110.180  95.618  0.00  0.00    +0.000 C 
ATOM     11  C   UNL     1      95.885 109.089  96.469  0.00  0.00    +0.000 C 
ATOM     12  C   UNL     1      96.454 107.936  95.626  0.00  0.00    +0.000 C 
ATOM     13  C   UNL     1      97.955 107.922  95.883  0.00  0.00    +0.000 C 
ATOM     14  N   UNL     1      98.160 108.550  97.182  0.00  0.00    +0.000 NA
ATOM     15  C   UNL     1      98.086 107.654  98.340  0.00  0.00    +0.000 C 
ATOM     16  C   UNL     1      96.955 108.168  99.217  0.00  0.00    +0.000 C 
ATOM     17  C   UNL     1      96.844 109.635  98.815  0.00  0.00    +0.000 C 
ATOM     18  C   UNL     1      97.096 109.567  97.306  0.00  0.00    +0.000 C 
ATOM     19  C   UNL     1      95.524 110.253  99.273  0.00  0.00    +0.000 C 
ATOM     20  C   UNL     1      95.350 111.706  98.880  0.00  0.00    +0.000 C 
ATOM     21  H   UNL     1      97.253 113.262  97.441  0.00  0.00    +0.000 HD
ENDROOT
BRANCH   1  23
ATOM     22  C   UNL     1      92.810 116.459  94.165  0.00  0.00    +0.000 C 
ATOM     23  O   UNL     1      93.316 115.364  93.403  0.00  0.00    +0.000 OA
ENDBRANCH   1  23
TORSDOF 1
ENDMDL
MODEL 7
REMARK VINA RESULT:    -7.736      5.158      8.116
REMARK INTER + INTRA:          -8.241
REMARK INTER:                  -8.189
REMARK INTRA:                  -0.052
REMARK UNBOUND:                -0.052
REMARK  Name = 
REMARK  2 active torsions:
REMARK  status: ('A' for Active; 'I' for Inactive)
REMARK    1  A    between atoms: C_1  and  O_2
REMARK    2  A    between atoms: O_2  and  C_3
REMARK                            x       y       z     vdW  Elec       q    Type
REMARK                         _______ _______ _______ _____ _____    ______ ____
ROOT
ATOM      1  C   UNL     1      98.331 111.530  99.552  0.00  0.00    +0.000 A 
ATOM      2  C   UNL     1      97.084 110.980  99.870  0.00  0.00    +0.000 A 
ATOM      3  C   UNL     1      96.764 109.658  99.544  0.00  0.00    +0.000 A 
ATOM      4  C   UNL     1      97.773 108.938  98.904  0.00  0.00    +0.000 A 
ATOM      5  N   UNL     1      97.744 107.821  98.090  0.00  0.00    +0.000 N 
ATOM      6  C   UNL     1      99.019 107.625  97.589  0.00  0.00    +0.000 A 
ATOM      7  C   UNL     1      99.820 108.149  98.589  0.00  0.00    +0.000 A 
ATOM      8  C   UNL     1      99.106 109.350  98.872  0.00  0.00    +0.000 A 
ATOM      9  C   UNL     1      99.386 110.701  99.150  0.00  0.00    +0.000 A 
ATOM     10  C   UNL     1     100.548 107.346  99.668  0.00  0.00    +0.000 C 
ATOM     11  C   UNL     1     100.769 105.838  99.401  0.00  0.00    +0.000 C 
ATOM     12  C   UNL     1     101.161 105.051 100.663  0.00  0.00    +0.000 C 
ATOM     13  C   UNL     1     100.069 104.010 100.869  0.00  0.00    +0.000 C 
ATOM     14  N   UNL     1      99.462 103.779  99.565  0.00  0.00    +0.000 NA
ATOM     15  C   UNL     1     100.103 102.752  98.738  0.00  0.00    +0.000 C 
ATOM     16  C   UNL     1     100.558 103.443  97.462  0.00  0.00    +0.000 C 
ATOM     17  C   UNL     1      99.645 104.662  97.382  0.00  0.00    +0.000 C 
ATOM     18  C   UNL     1      99.540 105.071  98.855  0.00  0.00    +0.000 C 
ATOM     19  C   UNL     1     100.175 105.709  96.405  0.00  0.00    +0.000 C 
ATOM     20  C   UNL     1      99.318 106.954  96.303  0.00  0.00    +0.000 C 
ATOM     21  H   UNL     1      96.897 107.407  97.734  0.00  0.00    +0.000 HD
ENDROOT
BRANCH   1  23
ATOM     22  C   UNL     1      99.745 113.419  99.596  0.00  0.00    +0.000 C 
ATOM     23  O   UNL     1      98.421 112.893  99.683  0.00  0.00    +0.000 OA
ENDBRANCH   1  23
TORSDOF 1
ENDMDL
MODEL 8
REMARK VINA RESULT:    -7.652      3.263      6.508
REMARK INTER + INTRA:          -8.152
REMARK INTER:                  -8.090
REMARK INTRA:                  -0.062
REMARK UNBOUND:                -0.052
REMARK  Name = 
REMARK  2 active torsions:
REMARK  status: ('A' for Active; 'I' for Inactive)
REMARK    1  A    between atoms: C_1  and  O_2
REMARK    2  A    between atoms: O_2  and  C_3
REMARK                            x       y       z     vdW  Elec       q    Type
REMARK                         _______ _______ _______ _____ _____    ______ ____
ROOT
ATOM      1  C   UNL     1      99.563 104.886  97.426  0.00  0.00    +0.000 A 
ATOM      2  C   UNL     1      98.657 103.823  97.347  0.00  0.00    +0.000 A 
ATOM      3  C   UNL     1      97.537 103.879  96.510  0.00  0.00    +0.000 A 
ATOM      4  C   UNL     1      97.405 105.049  95.762  0.00  0.00    +0.000 A 
ATOM      5  N   UNL     1      96.314 105.656  95.171  0.00  0.00    +0.000 N 
ATOM      6  C   UNL     1      96.717 106.891  94.694  0.00  0.00    +0.000 A 
ATOM      7  C   UNL     1      98.056 106.682  94.412  0.00  0.00    +0.000 A 
ATOM      8  C   UNL     1      98.445 105.963  95.581  0.00  0.00    +0.000 A 
ATOM      9  C   UNL     1      99.529 105.915  96.475  0.00  0.00    +0.000 A 
ATOM     10  C   UNL     1      98.648 106.396  93.031  0.00  0.00    +0.000 C 
ATOM     11  C   UNL     1      97.790 106.778  91.800  0.00  0.00    +0.000 C 
ATOM     12  C   UNL     1      98.283 106.130  90.495  0.00  0.00    +0.000 C 
ATOM     13  C   UNL     1      97.135 105.266  89.991  0.00  0.00    +0.000 C 
ATOM     14  N   UNL     1      95.915 105.823  90.558  0.00  0.00    +0.000 NA
ATOM     15  C   UNL     1      95.280 106.890  89.778  0.00  0.00    +0.000 C 
ATOM     16  C   UNL     1      95.249 108.121  90.669  0.00  0.00    +0.000 C 
ATOM     17  C   UNL     1      95.326 107.535  92.075  0.00  0.00    +0.000 C 
ATOM     18  C   UNL     1      96.299 106.369  91.875  0.00  0.00    +0.000 C 
ATOM     19  C   UNL     1      95.706 108.589  93.112  0.00  0.00    +0.000 C 
ATOM     20  C   UNL     1      95.820 108.057  94.526  0.00  0.00    +0.000 C 
ATOM     21  H   UNL     1      95.361 105.357  95.309  0.00  0.00    +0.000 HD
ENDROOT
BRANCH   1  23
ATOM     22  C   UNL     1     100.363 103.639  99.263  0.00  0.00    +0.000 C 
ATOM     23  O   UNL     1     100.457 104.819  98.465  0.00  0.00    +0.000 OA
ENDBRANCH   1  23
TORSDOF 1
ENDMDL
MODEL 9
REMARK VINA RESULT:    -7.608      3.601      4.694
REMARK INTER + INTRA:          -8.105
REMARK INTER:                  -8.052
REMARK INTRA:                  -0.052
REMARK UNBOUND:                -0.052
REMARK  Name = 
REMARK  2 active torsions:
REMARK  status: ('A' for Active; 'I' for Inactive)
REMARK    1  A    between atoms: C_1  and  O_2
REMARK    2  A    between atoms: O_2  and  C_3
REMARK                            x       y       z     vdW  Elec       q    Type
REMARK                         _______ _______ _______ _____ _____    ______ ____
ROOT
ATOM      1  C   UNL     1      98.855 104.542  96.506  0.00  0.00    +0.000 A 
ATOM      2  C   UNL     1      98.073 104.572  95.346  0.00  0.00    +0.000 A 
ATOM      3  C   UNL     1      97.093 105.551  95.150  0.00  0.00    +0.000 A 
ATOM      4  C   UNL     1      96.969 106.489  96.174  0.00  0.00    +0.000 A 
ATOM      5  N   UNL     1      95.929 107.313  96.558  0.00  0.00    +0.000 N 
ATOM      6  C   UNL     1      96.285 107.924  97.748  0.00  0.00    +0.000 A 
ATOM      7  C   UNL     1      97.665 107.984  97.656  0.00  0.00    +0.000 A 
ATOM      8  C   UNL     1      97.935 106.672  97.165  0.00  0.00    +0.000 A 
ATOM      9  C   UNL     1      98.871 105.642  97.373  0.00  0.00    +0.000 A 
ATOM     10  C   UNL     1      98.484 109.207  97.241  0.00  0.00    +0.000 C 
ATOM     11  C   UNL     1      97.792 110.588  97.337  0.00  0.00    +0.000 C 
ATOM     12  C   UNL     1      98.535 111.692  96.566  0.00  0.00    +0.000 C 
ATOM     13  C   UNL     1      97.563 112.201  95.511  0.00  0.00    +0.000 C 
ATOM     14  N   UNL     1      96.224 111.904  96.001  0.00  0.00    +0.000 NA
ATOM     15  C   UNL     1      95.620 112.925  96.862  0.00  0.00    +0.000 C 
ATOM     16  C   UNL     1      95.340 112.257  98.199  0.00  0.00    +0.000 C 
ATOM     17  C   UNL     1      95.255 110.778  97.838  0.00  0.00    +0.000 C 
ATOM     18  C   UNL     1      96.351 110.652  96.775  0.00  0.00    +0.000 C 
ATOM     19  C   UNL     1      95.373 109.882  99.069  0.00  0.00    +0.000 C 
ATOM     20  C   UNL     1      95.319 108.399  98.765  0.00  0.00    +0.000 C 
ATOM     21  H   UNL     1      94.999 107.259  96.175  0.00  0.00    +0.000 HD
ENDROOT
BRANCH   1  23
ATOM     22  C   UNL     1     100.539 103.456  97.751  0.00  0.00    +0.000 C 
ATOM     23  O   UNL     1      99.582 103.394  96.695  0.00  0.00    +0.000 OA
ENDBRANCH   1  23
TORSDOF 1
ENDMDL
