MODEL 1
REMARK VINA RESULT:    -6.244      0.000      0.000
REMARK INTER + INTRA:          -7.372
REMARK INTER:                  -7.156
REMARK INTRA:                  -0.216
REMARK UNBOUND:                -0.216
REMARK  Name = 
REMARK  4 active torsions:
REMARK  status: ('A' for Active; 'I' for Inactive)
REMARK    1  A    between atoms: C_1  and  C_2
REMARK    2  A    between atoms: C_2  and  N_3
REMARK    3  A    between atoms: C_2  and  C_4
REMARK    4  A    between atoms: C_4  and  C_5
REMARK                            x       y       z     vdW  Elec       q    Type
REMARK                         _______ _______ _______ _____ _____    ______ ____
ROOT
ATOM      1  C   UNL     1      97.486 106.822  91.506  0.00  0.00    +0.000 A 
ATOM      2  C   UNL     1      97.395 105.509  90.991  0.00  0.00    +0.000 A 
ATOM      3  C   UNL     1      97.982 105.171  89.768  0.00  0.00    +0.000 A 
ATOM      4  C   UNL     1      98.659 106.158  89.086  0.00  0.00    +0.000 A 
ATOM      5  C   UNL     1      98.753 107.438  89.577  0.00  0.00    +0.000 A 
ATOM      6  C   UNL     1      98.181 107.803  90.778  0.00  0.00    +0.000 A 
ATOM      7  O   UNL     1      99.461 108.257  88.752  0.00  0.00    +0.000 OA
ATOM      8  C   UNL     1      99.844 107.330  87.714  0.00  0.00    +0.000 C 
ATOM      9  O   UNL     1      99.300 106.007  87.897  0.00  0.00    +0.000 OA
ENDROOT
BRANCH   1  10
ATOM     10  C   UNL     1      96.849 107.158  92.839  0.00  0.00    +0.000 C 
BRANCH  10  12
ATOM     11  C   UNL     1      98.424 106.642  94.775  0.00  0.00    +0.000 C 
ATOM     12  C   UNL     1      97.210 106.174  93.975  0.00  0.00    +0.000 C 
BRANCH  12  13
ATOM     13  N   UNL     1      96.063 106.019  94.882  0.00  0.00    +0.000 NA
ATOM     14  H   UNL     1      95.296 105.554  94.398  0.00  0.00    +0.000 HD
ATOM     15  H   UNL     1      95.709 106.945  95.139  0.00  0.00    +0.000 HD
ENDBRANCH  12  13
ENDBRANCH  10  12
ENDBRANCH   1  10
TORSDOF 3
ENDMDL
MODEL 2
REMARK VINA RESULT:    -5.909      3.490      4.562
REMARK INTER + INTRA:          -6.989
REMARK INTER:                  -6.815
REMARK INTRA:                  -0.173
REMARK UNBOUND:                -0.216
REMARK  Name = 
REMARK  4 active torsions:
REMARK  status: ('A' for Active; 'I' for Inactive)
REMARK    1  A    between atoms: C_1  and  C_2
REMARK    2  A    between atoms: C_2  and  N_3
REMARK    3  A    between atoms: C_2  and  C_4
REMARK    4  A    between atoms: C_4  and  C_5
REMARK                            x       y       z     vdW  Elec       q    Type
REMARK                         _______ _______ _______ _____ _____    ______ ____
ROOT
ATOM      1  C   UNL     1      95.247 105.408  89.225  0.00  0.00    +0.000 A 
ATOM      2  C   UNL     1      95.140 106.538  90.066  0.00  0.00    +0.000 A 
ATOM      3  C   UNL     1      96.254 107.335  90.350  0.00  0.00    +0.000 A 
ATOM      4  C   UNL     1      97.456 106.984  89.777  0.00  0.00    +0.000 A 
ATOM      5  C   UNL     1      97.572 105.887  88.958  0.00  0.00    +0.000 A 
ATOM      6  C   UNL     1      96.492 105.080  88.662  0.00  0.00    +0.000 A 
ATOM      7  O   UNL     1      98.841 105.717  88.497  0.00  0.00    +0.000 OA
ATOM      8  C   UNL     1      99.496 106.864  89.079  0.00  0.00    +0.000 C 
ATOM      9  O   UNL     1      98.633 107.647  89.929  0.00  0.00    +0.000 OA
ENDROOT
BRANCH   1  10
ATOM     10  C   UNL     1      94.021 104.569  88.926  0.00  0.00    +0.000 C 
BRANCH  10  12
ATOM     11  C   UNL     1      93.080 102.474  90.030  0.00  0.00    +0.000 C 
ATOM     12  C   UNL     1      94.213 103.057  89.189  0.00  0.00    +0.000 C 
BRANCH  12  13
ATOM     13  N   UNL     1      94.288 102.335  87.910  0.00  0.00    +0.000 NA
ATOM     14  H   UNL     1      95.259 102.264  87.607  0.00  0.00    +0.000 HD
ATOM     15  H   UNL     1      93.810 102.880  87.187  0.00  0.00    +0.000 HD
ENDBRANCH  12  13
ENDBRANCH  10  12
ENDBRANCH   1  10
TORSDOF 3
ENDMDL
MODEL 3
REMARK VINA RESULT:    -5.822      1.199      2.087
REMARK INTER + INTRA:          -6.888
REMARK INTER:                  -6.703
REMARK INTRA:                  -0.186
REMARK UNBOUND:                -0.216
REMARK  Name = 
REMARK  4 active torsions:
REMARK  status: ('A' for Active; 'I' for Inactive)
REMARK    1  A    between atoms: C_1  and  C_2
REMARK    2  A    between atoms: C_2  and  N_3
REMARK    3  A    between atoms: C_2  and  C_4
REMARK    4  A    between atoms: C_4  and  C_5
REMARK                            x       y       z     vdW  Elec       q    Type
REMARK                         _______ _______ _______ _____ _____    ______ ____
ROOT
ATOM      1  C   UNL     1      96.828 107.346  91.527  0.00  0.00    +0.000 A 
ATOM      2  C   UNL     1      97.379 108.601  91.182  0.00  0.00    +0.000 A 
ATOM      3  C   UNL     1      98.305 108.721  90.141  0.00  0.00    +0.000 A 
ATOM      4  C   UNL     1      98.655 107.577  89.458  0.00  0.00    +0.000 A 
ATOM      5  C   UNL     1      98.126 106.351  89.786  0.00  0.00    +0.000 A 
ATOM      6  C   UNL     1      97.214 106.201  90.810  0.00  0.00    +0.000 A 
ATOM      7  O   UNL     1      98.602 105.354  88.992  0.00  0.00    +0.000 OA
ATOM      8  C   UNL     1      99.450 106.102  88.096  0.00  0.00    +0.000 C 
ATOM      9  O   UNL     1      99.524 107.507  88.415  0.00  0.00    +0.000 OA
ENDROOT
BRANCH   1  10
ATOM     10  C   UNL     1      95.819 107.248  92.653  0.00  0.00    +0.000 C 
BRANCH  10  12
ATOM     11  C   UNL     1      96.002 108.568  94.825  0.00  0.00    +0.000 C 
ATOM     12  C   UNL     1      96.443 107.318  94.066  0.00  0.00    +0.000 C 
BRANCH  12  13
ATOM     13  N   UNL     1      96.066 106.125  94.837  0.00  0.00    +0.000 NA
ATOM     14  H   UNL     1      95.856 106.384  95.799  0.00  0.00    +0.000 HD
ATOM     15  H   UNL     1      96.869 105.490  94.889  0.00  0.00    +0.000 HD
ENDBRANCH  12  13
ENDBRANCH  10  12
ENDBRANCH   1  10
TORSDOF 3
ENDMDL
MODEL 4
REMARK VINA RESULT:    -5.730      3.814      5.104
REMARK INTER + INTRA:          -6.783
REMARK INTER:                  -6.568
REMARK INTRA:                  -0.215
REMARK UNBOUND:                -0.216
REMARK  Name = 
REMARK  4 active torsions:
REMARK  status: ('A' for Active; 'I' for Inactive)
REMARK    1  A    between atoms: C_1  and  C_2
REMARK    2  A    between atoms: C_2  and  N_3
REMARK    3  A    between atoms: C_2  and  C_4
REMARK    4  A    between atoms: C_4  and  C_5
REMARK                            x       y       z     vdW  Elec       q    Type
REMARK                         _______ _______ _______ _____ _____    ______ ____
ROOT
ATOM      1  C   UNL     1      95.475 105.248  89.423  0.00  0.00    +0.000 A 
ATOM      2  C   UNL     1      96.814 104.836  89.609  0.00  0.00    +0.000 A 
ATOM      3  C   UNL     1      97.660 105.511  90.495  0.00  0.00    +0.000 A 
ATOM      4  C   UNL     1      97.141 106.584  91.185  0.00  0.00    +0.000 A 
ATOM      5  C   UNL     1      95.841 106.993  91.011  0.00  0.00    +0.000 A 
ATOM      6  C   UNL     1      94.984 106.350  90.142  0.00  0.00    +0.000 A 
ATOM      7  O   UNL     1      95.530 108.068  91.784  0.00  0.00    +0.000 OA
ATOM      8  C   UNL     1      96.768 108.254  92.501  0.00  0.00    +0.000 C 
ATOM      9  O   UNL     1      97.810 107.344  92.093  0.00  0.00    +0.000 OA
ENDROOT
BRANCH   1  10
ATOM     10  C   UNL     1      94.578 104.491  88.463  0.00  0.00    +0.000 C 
BRANCH  10  12
ATOM     11  C   UNL     1      93.252 102.749  89.768  0.00  0.00    +0.000 C 
ATOM     12  C   UNL     1      94.412 102.992  88.804  0.00  0.00    +0.000 C 
BRANCH  12  13
ATOM     13  N   UNL     1      94.188 102.223  87.572  0.00  0.00    +0.000 NA
ATOM     14  H   UNL     1      94.728 101.360  87.598  0.00  0.00    +0.000 HD
ATOM     15  H   UNL     1      94.549 102.754  86.774  0.00  0.00    +0.000 HD
ENDBRANCH  12  13
ENDBRANCH  10  12
ENDBRANCH   1  10
TORSDOF 3
ENDMDL
MODEL 5
REMARK VINA RESULT:    -5.701      2.308      2.992
REMARK INTER + INTRA:          -6.750
REMARK INTER:                  -6.612
REMARK INTRA:                  -0.139
REMARK UNBOUND:                -0.216
REMARK  Name = 
REMARK  4 active torsions:
REMARK  status: ('A' for Active; 'I' for Inactive)
REMARK    1  A    between atoms: C_1  and  C_2
REMARK    2  A    between atoms: C_2  and  N_3
REMARK    3  A    between atoms: C_2  and  C_4
REMARK    4  A    between atoms: C_4  and  C_5
REMARK                            x       y       z     vdW  Elec       q    Type
REMARK                         _______ _______ _______ _____ _____    ______ ____
ROOT
ATOM      1  C   UNL     1      96.975 107.658  91.535  0.00  0.00    +0.000 A 
ATOM      2  C   UNL     1      98.157 107.513  90.774  0.00  0.00    +0.000 A 
ATOM      3  C   UNL     1      98.218 106.620  89.700  0.00  0.00    +0.000 A 
ATOM      4  C   UNL     1      97.086 105.892  89.405  0.00  0.00    +0.000 A 
ATOM      5  C   UNL     1      95.932 106.025  90.139  0.00  0.00    +0.000 A 
ATOM      6  C   UNL     1      95.842 106.895  91.206  0.00  0.00    +0.000 A 
ATOM      7  O   UNL     1      94.934 105.219  89.685  0.00  0.00    +0.000 OA
ATOM      8  C   UNL     1      95.579 104.604  88.550  0.00  0.00    +0.000 C 
ATOM      9  O   UNL     1      96.959 104.993  88.393  0.00  0.00    +0.000 OA
ENDROOT
BRANCH   1  10
ATOM     10  C   UNL     1      96.934 108.642  92.688  0.00  0.00    +0.000 C 
BRANCH  10  12
ATOM     11  C   UNL     1      96.691 108.435  95.216  0.00  0.00    +0.000 C 
ATOM     12  C   UNL     1      96.027 108.201  93.860  0.00  0.00    +0.000 C 
BRANCH  12  13
ATOM     13  N   UNL     1      94.756 108.936  93.809  0.00  0.00    +0.000 NA
ATOM     14  H   UNL     1      94.923 109.902  93.531  0.00  0.00    +0.000 HD
ATOM     15  H   UNL     1      94.356 108.983  94.751  0.00  0.00    +0.000 HD
ENDBRANCH  12  13
ENDBRANCH  10  12
ENDBRANCH   1  10
TORSDOF 3
ENDMDL
MODEL 6
REMARK VINA RESULT:    -5.536      3.572      5.328
REMARK INTER + INTRA:          -6.560
REMARK INTER:                  -6.383
REMARK INTRA:                  -0.177
REMARK UNBOUND:                -0.216
REMARK  Name = 
REMARK  4 active torsions:
REMARK  status: ('A' for Active; 'I' for Inactive)
REMARK    1  A    between atoms: C_1  and  C_2
REMARK    2  A    between atoms: C_2  and  N_3
REMARK    3  A    between atoms: C_2  and  C_4
REMARK    4  A    between atoms: C_4  and  C_5
REMARK                            x       y       z     vdW  Elec       q    Type
REMARK                         _______ _______ _______ _____ _____    ______ ____
ROOT
ATOM      1  C   UNL     1      97.838 107.299  91.280  0.00  0.00    +0.000 A 
ATOM      2  C   UNL     1      97.878 106.084  92.002  0.00  0.00    +0.000 A 
ATOM      3  C   UNL     1      97.431 106.016  93.325  0.00  0.00    +0.000 A 
ATOM      4  C   UNL     1      96.943 107.170  93.898  0.00  0.00    +0.000 A 
ATOM      5  C   UNL     1      96.901 108.356  93.206  0.00  0.00    +0.000 A 
ATOM      6  C   UNL     1      97.338 108.456  91.901  0.00  0.00    +0.000 A 
ATOM      7  O   UNL     1      96.386 109.372  93.951  0.00  0.00    +0.000 OA
ATOM      8  C   UNL     1      96.063 108.674  95.172  0.00  0.00    +0.000 C 
ATOM      9  O   UNL     1      96.456 107.286  95.162  0.00  0.00    +0.000 OA
ENDROOT
BRANCH   1  10
ATOM     10  C   UNL     1      98.320 107.341  89.844  0.00  0.00    +0.000 C 
BRANCH  10  12
ATOM     11  C   UNL     1      97.420 105.365  88.510  0.00  0.00    +0.000 C 
ATOM     12  C   UNL     1      98.626 105.951  89.241  0.00  0.00    +0.000 C 
BRANCH  12  13
ATOM     13  N   UNL     1      99.757 106.052  88.306  0.00  0.00    +0.000 NA
ATOM     14  H   UNL     1     100.224 105.150  88.227  0.00  0.00    +0.000 HD
ATOM     15  H   UNL     1     100.455 106.695  88.690  0.00  0.00    +0.000 HD
ENDBRANCH  12  13
ENDBRANCH  10  12
ENDBRANCH   1  10
TORSDOF 3
ENDMDL
MODEL 7
REMARK VINA RESULT:    -5.462      3.454      5.419
REMARK INTER + INTRA:          -6.477
REMARK INTER:                  -6.295
REMARK INTRA:                  -0.182
REMARK UNBOUND:                -0.216
REMARK  Name = 
REMARK  4 active torsions:
REMARK  status: ('A' for Active; 'I' for Inactive)
REMARK    1  A    between atoms: C_1  and  C_2
REMARK    2  A    between atoms: C_2  and  N_3
REMARK    3  A    between atoms: C_2  and  C_4
REMARK    4  A    between atoms: C_4  and  C_5
REMARK                            x       y       z     vdW  Elec       q    Type
REMARK                         _______ _______ _______ _____ _____    ______ ____
ROOT
ATOM      1  C   UNL     1      97.208 106.289  92.399  0.00  0.00    +0.000 A 
ATOM      2  C   UNL     1      97.952 106.318  93.600  0.00  0.00    +0.000 A 
ATOM      3  C   UNL     1      97.641 107.222  94.620  0.00  0.00    +0.000 A 
ATOM      4  C   UNL     1      96.581 108.078  94.417  0.00  0.00    +0.000 A 
ATOM      5  C   UNL     1      95.851 108.060  93.253  0.00  0.00    +0.000 A 
ATOM      6  C   UNL     1      96.136 107.181  92.228  0.00  0.00    +0.000 A 
ATOM      7  O   UNL     1      94.852 108.982  93.254  0.00  0.00    +0.000 OA
ATOM      8  C   UNL     1      95.006 109.546  94.574  0.00  0.00    +0.000 C 
ATOM      9  O   UNL     1      96.130 109.009  95.300  0.00  0.00    +0.000 OA
ENDROOT
BRANCH   1  10
ATOM     10  C   UNL     1      97.560 105.291  91.314  0.00  0.00    +0.000 C 
BRANCH  10  12
ATOM     11  C   UNL     1      97.657 105.358  88.768  0.00  0.00    +0.000 C 
ATOM     12  C   UNL     1      96.764 105.478  90.002  0.00  0.00    +0.000 C 
BRANCH  12  13
ATOM     13  N   UNL     1      95.691 104.476  89.923  0.00  0.00    +0.000 NA
ATOM     14  H   UNL     1      95.194 104.429  90.812  0.00  0.00    +0.000 HD
ATOM     15  H   UNL     1      96.105 103.550  89.786  0.00  0.00    +0.000 HD
ENDBRANCH  12  13
ENDBRANCH  10  12
ENDBRANCH   1  10
TORSDOF 3
ENDMDL
MODEL 8
REMARK VINA RESULT:    -5.456      3.496      5.305
REMARK INTER + INTRA:          -6.469
REMARK INTER:                  -6.303
REMARK INTRA:                  -0.166
REMARK UNBOUND:                -0.216
REMARK  Name = 
REMARK  4 active torsions:
REMARK  status: ('A' for Active; 'I' for Inactive)
REMARK    1  A    between atoms: C_1  and  C_2
REMARK    2  A    between atoms: C_2  and  N_3
REMARK    3  A    between atoms: C_2  and  C_4
REMARK    4  A    between atoms: C_4  and  C_5
REMARK                            x       y       z     vdW  Elec       q    Type
REMARK                         _______ _______ _______ _____ _____    ______ ____
ROOT
ATOM      1  C   UNL     1      97.019 106.476  91.296  0.00  0.00    +0.000 A 
ATOM      2  C   UNL     1      95.706 106.840  90.923  0.00  0.00    +0.000 A 
ATOM      3  C   UNL     1      94.943 107.704  91.715  0.00  0.00    +0.000 A 
ATOM      4  C   UNL     1      95.519 108.195  92.866  0.00  0.00    +0.000 A 
ATOM      5  C   UNL     1      96.795 107.848  93.238  0.00  0.00    +0.000 A 
ATOM      6  C   UNL     1      97.570 106.995  92.480  0.00  0.00    +0.000 A 
ATOM      7  O   UNL     1      97.173 108.440  94.404  0.00  0.00    +0.000 OA
ATOM      8  C   UNL     1      96.006 109.239  94.692  0.00  0.00    +0.000 C 
ATOM      9  O   UNL     1      94.935 109.053  93.744  0.00  0.00    +0.000 OA
ENDROOT
BRANCH   1  10
ATOM     10  C   UNL     1      97.826 105.546  90.414  0.00  0.00    +0.000 C 
BRANCH  10  12
ATOM     11  C   UNL     1      99.354 105.964  88.417  0.00  0.00    +0.000 C 
ATOM     12  C   UNL     1      97.919 105.999  88.938  0.00  0.00    +0.000 C 
BRANCH  12  13
ATOM     13  N   UNL     1      97.077 105.134  88.098  0.00  0.00    +0.000 NA
ATOM     14  H   UNL     1      97.507 105.015  87.182  0.00  0.00    +0.000 HD
ATOM     15  H   UNL     1      96.181 105.599  87.927  0.00  0.00    +0.000 HD
ENDBRANCH  12  13
ENDBRANCH  10  12
ENDBRANCH   1  10
TORSDOF 3
ENDMDL
MODEL 9
REMARK VINA RESULT:    -5.225      1.837      2.867
REMARK INTER + INTRA:          -6.205
REMARK INTER:                  -6.024
REMARK INTRA:                  -0.181
REMARK UNBOUND:                -0.216
REMARK  Name = 
REMARK  4 active torsions:
REMARK  status: ('A' for Active; 'I' for Inactive)
REMARK    1  A    between atoms: C_1  and  C_2
REMARK    2  A    between atoms: C_2  and  N_3
REMARK    3  A    between atoms: C_2  and  C_4
REMARK    4  A    between atoms: C_4  and  C_5
REMARK                            x       y       z     vdW  Elec       q    Type
REMARK                         _______ _______ _______ _____ _____    ______ ____
ROOT
ATOM      1  C   UNL     1      97.385 107.257  93.525  0.00  0.00    +0.000 A 
ATOM      2  C   UNL     1      97.194 108.368  92.673  0.00  0.00    +0.000 A 
ATOM      3  C   UNL     1      97.183 108.218  91.283  0.00  0.00    +0.000 A 
ATOM      4  C   UNL     1      97.356 106.950  90.773  0.00  0.00    +0.000 A 
ATOM      5  C   UNL     1      97.543 105.863  91.592  0.00  0.00    +0.000 A 
ATOM      6  C   UNL     1      97.563 105.980  92.967  0.00  0.00    +0.000 A 
ATOM      7  O   UNL     1      97.694 104.707  90.891  0.00  0.00    +0.000 OA
ATOM      8  C   UNL     1      97.529 105.187  89.540  0.00  0.00    +0.000 C 
ATOM      9  O   UNL     1      97.359 106.617  89.455  0.00  0.00    +0.000 OA
ENDROOT
BRANCH   1  10
ATOM     10  C   UNL     1      97.383 107.447  95.029  0.00  0.00    +0.000 C 
BRANCH  10  12
ATOM     11  C   UNL     1      97.910 105.548  96.645  0.00  0.00    +0.000 C 
ATOM     12  C   UNL     1      96.827 106.238  95.816  0.00  0.00    +0.000 C 
BRANCH  12  13
ATOM     13  N   UNL     1      95.743 106.678  96.705  0.00  0.00    +0.000 NA
ATOM     14  H   UNL     1      95.753 107.694  96.789  0.00  0.00    +0.000 HD
ATOM     15  H   UNL     1      95.914 106.319  97.649  0.00  0.00    +0.000 HD
ENDBRANCH  12  13
ENDBRANCH  10  12
ENDBRANCH   1  10
TORSDOF 3
ENDMDL
